ID,pretty_formula,compound,energy_cell,energy_atom,lattice_system,spacegroup,species,volume_cell,moment_cell,mag_field,mag_sites_MP,mag_sites,mag_type,magmom,comment1,icsd_ids,doi,comment2,e_above_hull,magnetization_norm_vol
mp-22200,LiMnFeF6,Li1 Mn1 Fe1 F6,,-2.881047644584929,Trigonal,P321,F;Fe;Li;Mn,329.2701445915272,30.003029,,6,3,FM,0.0;0.0;0.0;4.7;4.7;4.7;4.5;4.5;4.5;0.0;0.0;0.0;0.0;0.0;0.0;0.0;0.0;0.0;0.0;0.0;0.0;0.0;0.0;0.0;0.0;0.0;0.0,,,,,0.0,0.09111979780984901
mp-1225492,Eu2MnP3Pt7,Eu2 Mn1 P3 Pt7,,-0.840433428604584,Tetragonal,I-4m2,Eu;Mn;P;Pt,228.62543867803976,18.3269439,,3,2,FM,6.7;6.7;4.0;0.0;0.0;0.0;0.0;0.0;0.0;0.0;0.0;0.0;0.0,,,,,0.0,0.080161437878349
mp-1078895,Mn3Pd5,Mn3 Pd5,,-0.503062945431032,Orthorhombic,Cmmm,Mn;Pd,120.01537171426091,13.9046551,,7,5,FM,4.2;4.2;4.2;0.0;0.2;0.2;0.2;0.2,,,,,0.0,0.11585728479102601
mp-864968,MnInRh2,Mn1 In1 Rh2,,-0.553888846120688,Cubic,Fm-3m,In;Mn;Rh,61.29916520432127,4.6286935,,3,2,FM,4.0;0.0;0.30000000000000004;0.30000000000000004,,,,,0.0,0.075509894540516
mp-1210501,Na2Mn3(PO4)3,Na2 Mn3 P3 O12,,-2.540863228524014,Monoclinic,C2/c,Mn;Na;O;P,470.70134464402065,28.0021238,,6,2,FM,0.0;0.0;0.0;0.0;4.7;4.7;4.4;4.4;4.4;4.4;0.0;0.0;0.0;0.0;0.0;0.0;0.0;0.0;0.0;0.0;0.0;0.0;0.0;0.0;0.0;0.0;0.0;0.0;0.0;0.0;0.0;0.0;0.0;0.0;0.0;0.0;0.0;0.0;0.0;0.0,,,,,0.0,0.059490214163669
mp-1193430,KMn2P2HO9,K1 Mn2 P2 H1 O9,,-2.380012160243185,Monoclinic,P2_1/m,H;K;Mn;O;P,382.0093288299547,16.0002571,,4,2,FM,0.0;0.0;3.9;3.9;3.9;3.9;0.0;0.0;0.0;0.0;0.0;0.0;0.0;0.0;0.0;0.0;0.0;0.0;0.0;0.0;0.0;0.0;0.0;0.0;0.0;0.0;0.0;0.0;0.0;0.0,,,,,0.0,0.041884466929136006
mp-540593,CaCr2O4,Ca1 Cr2 O4,,-2.7197441021428572,Orthorhombic,Pnma,Ca;Cr;O,288.1281112341363,24.0000001,,8,2,FM,0.0;0.0;0.0;0.0;2.9;2.9;2.9;2.9;2.9;2.9;2.9;2.9;0.0;0.0;0.0;0.0;0.0;0.0;0.0;0.0;0.0;0.0;0.0;0.0;0.0;0.0;0.0;0.0,,,,,0.0,0.08329628093975601
mp-18928,Mn2SiO4,Mn2 Si1 O4,,-2.466236842709359,Orthorhombic,Pnma,Mn;O;Si,324.0014486422718,40.000001,,8,2,FM,4.6;4.6;4.6;4.6;4.6;4.6;4.6;4.6;0.0;0.0;0.0;0.0;0.0;0.0;0.0;0.0;0.0;0.0;0.0;0.0;0.0;0.0;0.0;0.0;0.0;0.0;0.0;0.0,,,,,0.0,0.123456241222439
mp-2199,Fe3Si,Fe3 Si1,,-0.19893894125000003,Cubic,Fm-3m,Fe;Si,44.55133425900721,6.6896354,,3,2,FM,2.2;2.2;2.6;0.0,,,,,0.0,0.15015566898869
mp-1226264,Cr4GaS8,Cr4 Ga1 S8,,-0.9320521540384621,Cubic,F-43m,Cr;Ga;S,240.66970589107606,11.0000004,,4,2,FM,2.9;2.9;2.9;2.9;0.0;0.0;0.0;0.0;0.0;0.0;0.0;0.0;0.0,,,,,0.008270239507211001,0.045705795664114
mp-1974686,Cr2NiO4,Cr2 Ni1 O4,,-2.013946308571427,Trigonal,R-3m,Cr;Ni;O,145.0305800941281,15.9999997,,6,6,FM,2.9;2.9;2.9;2.9;1.7000000000000002;1.7000000000000002;0.0;0.0;0.0;0.0;0.0;0.0;0.0;0.0,,,,,0.018820262857143,0.110321559009249
mp-1207725,TmMn2O5,Tm1 Mn2 O5,,-2.79156195846444,Orthorhombic,Pbam,Mn;O;Tm,339.95944959912464,28.0000021,,12,3,FM,0.1;0.1;0.1;0.1;3.6;3.6;3.6;3.6;3.0;3.0;3.0;3.0;0.0;0.0;0.0;0.0;0.0;0.0;0.0;0.0;0.0;0.0;0.0;0.0;0.0;0.0;0.0;0.0;0.0;0.0;0.0;0.0,,,,,0.0,0.08236277042164
mp-3204398,VFeHgO5,V1 Fe1 Hg1 O5,,-1.713818870156251,Orthorhombic,Pnma,Fe;Hg;O;V,428.3253655433916,19.9984208,,12,6,FM,0.1;0.1;0.1;0.1;4.1;4.1;4.1;4.1;0.0;0.0;0.0;0.0;0.0;0.0;0.0;0.0;0.0;0.0;0.0;0.0;0.0;0.0;0.0;0.0;0.30000000000000004;0.30000000000000004;0.30000000000000004;0.30000000000000004;0.0;0.0;0.0;0.0,,,,,0.0,0.046689788671817
mp-28525,Mn15(Br3O10)2,Mn15 Br6 O20,,-1.9439793479814962,Cubic,Fm-3m,Br;Mn;O,557.5237931852873,59.0000036,,15,3,FM,3.7;3.3;3.3;3.7;3.7;3.7;3.7;3.7;3.7;3.7;3.7;3.7;3.7;3.7;4.5;0.0;0.0;0.0;0.0;0.0;0.0;0.0;0.0;0.0;0.0;0.0;0.0;0.0;0.0;0.0;0.0;0.0;0.0;0.0;0.0;0.0;0.0;0.0;0.0;0.0;0.0,,,,,0.0,0.10582508642889701
mp-3704,Cs2Mn3Se4,Cs2 Mn3 Se4,,-1.202847188299807,Orthorhombic,Ibam,Cs;Mn;Se,558.0431152011563,29.9999993,,6,2,FM,0.0;0.0;0.0;0.0;4.4;4.4;4.4;4.4;4.4;4.4;0.0;0.0;0.0;0.0;0.0;0.0;0.0;0.0,,,,,0.0,0.053759285766272
mp-19192,Y2MnNiO6,Y2 Mn1 Ni1 O6,,-2.822945541793103,Monoclinic,P2_1/c,Mn;Ni;O;Y,224.09238417801222,9.999928,,4,2,FM,0.0;0.0;0.0;0.0;3.2;3.2;1.7000000000000002;1.7000000000000002;0.0;0.0;0.0;0.0;0.0;0.0;0.0;0.0;0.0;0.0;0.0;0.0,,,,,0.0,0.044624131412053
mp-556656,Mn3B7ClO13,Mn3 B7 Cl1 O13,,-2.666306990331657,Orthorhombic,Pca2_1,B;Cl;Mn;O,957.7135709470496,60.0017342,,12,3,FM,4.7;4.7;4.7;4.7;4.7;4.7;4.7;4.7;4.7;4.7;4.7;4.7;0.0;0.0;0.0;0.0;0.0;0.0;0.0;0.0;0.0;0.0;0.0;0.0;0.0;0.0;0.0;0.0;0.0;0.0;0.0;0.0;0.0;0.0;0.0;0.0;0.0;0.0;0.0;0.0;0.0;0.0;0.0;0.0;0.0;0.0;0.0;0.0;0.0;0.0;0.0;0.0;0.0;0.0;0.0;0.0;0.0;0.0;0.0;0.0;0.0;0.0;0.0;0.0;0.0;0.0;0.0;0.0;0.0;0.0;0.0;0.0;0.0;0.0;0.0;0.0;0.0;0.0;0.0;0.0;0.0;0.0;0.0;0.0;0.0;0.0;0.0;0.0;0.0;0.0;0.0;0.0;0.0;0.0;0.0;0.0,,,,,0.0,0.062651022205591
mp-19107,LiMnVO4,Li1 Mn1 V1 O4,,-2.4578172194499173,Orthorhombic,Cmcm,Li;Mn;O;V,155.97052984040462,10.0000008,,4,2,FM,0.0;0.0;4.4;4.4;0.30000000000000004;0.30000000000000004;0.0;0.0;0.0;0.0;0.0;0.0;0.0;0.0,,,,,0.0,0.064114681217229
mp-19072,Si(NiO2)2,Si1 Ni2 O4,,-1.968760134285713,Orthorhombic,Pnma,Ni;O;Si,281.1957752423065,16.0000004,,8,2,FM,0.0;0.0;0.0;0.0;1.7000000000000002;1.7000000000000002;1.7000000000000002;1.7000000000000002;1.7000000000000002;1.7000000000000002;1.7000000000000002;1.7000000000000002;0.0;0.0;0.0;0.0;0.0;0.0;0.0;0.0;0.0;0.0;0.0;0.0;0.0;0.0;0.0;0.0,,,,,0.0,0.056899860555204004
mp-18988,Li2MnO3,Li2 Mn1 O3,,-2.305532014427681,Monoclinic,C2/m,Li;Mn;O,195.46738339598636,12.0000012,,2,2,FM,0.0;0.0;0.0;0.0;2.8;2.8;0.0;0.0;0.0;0.0;0.0;0.0,,,,,0.0,0.061391322641741006
mp-1209522,Rb2Mn3Te4,Rb2 Mn3 Te4,,-0.9149690306609171,Orthorhombic,Ibam,Mn;Rb;Te,636.7601722521399,30.0000001,,6,3,FM,0.0;0.0;0.0;0.0;4.4;4.4;4.4;4.4;4.4;4.4;0.0;0.0;0.0;0.0;0.0;0.0;0.0;0.0,,,,,0.0,0.047113499567496005
mp-1003638,NaMn8O16,Na1 Mn8 O16,,-2.076334527034481,Monoclinic,P2/c,Mn;Na;O,545.3296658813018,49.9736323,,16,16,FM,0.0;0.0;3.0;3.0;3.0;3.0;3.0;3.0;3.0;3.0;3.0;3.0;3.0;3.0;3.0;3.0;3.0;3.0;0.0;0.0;0.0;0.0;0.0;0.0;0.0;0.0;0.0;0.0;0.0;0.0;0.0;0.0;0.0;0.0;0.0;0.0;0.0;0.0;0.0;0.0;0.0;0.0;0.0;0.0;0.0;0.0;0.0;0.0;0.0;0.0,,,,,0.0,0.09163930632535401
mp-19264,Co3(PO4)2,Co3 P2 O8,,-1.9230306127655692,Monoclinic,P2_1/c,Co;O;P,314.34525650770917,18.0000003,,6,2,FM,2.7;2.7;2.7;2.7;2.7;2.7;0.0;0.0;0.0;0.0;0.0;0.0;0.0;0.0;0.0;0.0;0.0;0.0;0.0;0.0;0.0;0.0;0.0;0.0;0.0;0.0,,,,,0.0,0.057261879819581
mp-3212625,Mn4Co2PbO12,Mn4 Co2 Pb1 O12,,-1.824284563312158,Monoclinic,C2/m,Co;Mn;O;Pb,391.28597049847383,24.0001173,,12,4,FM,2.8;2.8;2.8;2.8;2.8;2.8;2.8;2.8;0.1;0.1;0.1;0.1;0.0;0.0;0.0;0.0;0.0;0.0;0.0;0.0;0.0;0.0;0.0;0.0;0.0;0.0;0.0;0.0;0.0;0.0;0.0;0.0;0.0;0.0;0.0;0.0;0.0;0.0,,,,,0.0,0.061336513725307004
mp-1043874,CaLaFeNiO6,Ca1 La1 Fe1 Ni1 O6,,-2.352552896,Monoclinic,Pc,Ca;Fe;La;Ni;O,230.4524097478238,10.0129448,,4,2,FM,0.0;0.0;0.0;0.0;3.7;3.7;1.6;1.6;0.0;0.0;0.0;0.0;0.0;0.0;0.0;0.0;0.0;0.0;0.0;0.0,,,,,0.0,0.043449078319279
mp-705872,Ni17(As3O16)2,Ni17 As6 O32,,-1.277837917454546,Monoclinic,P2_1/c,As;Ni;O,1128.2273434340952,67.9999992,,42,25,FM,1.7000000000000002;1.7000000000000002;1.7000000000000002;1.7000000000000002;1.7000000000000002;1.7000000000000002;1.7000000000000002;1.7000000000000002;1.7000000000000002;1.7000000000000002;1.7000000000000002;1.7000000000000002;1.7000000000000002;1.7000000000000002;1.7000000000000002;1.7000000000000002;1.7000000000000002;1.7000000000000002;1.7000000000000002;1.7000000000000002;1.7000000000000002;1.7000000000000002;1.7000000000000002;1.7000000000000002;1.7000000000000002;1.7000000000000002;1.7000000000000002;1.7000000000000002;1.7000000000000002;1.7000000000000002;1.7000000000000002;1.7000000000000002;1.7000000000000002;1.7000000000000002;0.0;0.0;0.0;0.0;0.0;0.0;0.0;0.0;0.0;0.0;0.0;0.0;0.0;0.0;0.0;0.30000000000000004;0.0;0.0;0.0;0.0;0.0;0.0;0.0;0.30000000000000004;0.0;0.0;0.0;0.0;0.0;0.0;0.0;0.0;0.0;0.0;0.30000000000000004;0.0;0.0;0.30000000000000004;0.0;0.0;0.0;0.0;0.0;0.0;0.0;0.0;0.0;0.0;0.0;0.0;0.30000000000000004;0.0;0.0;0.30000000000000004;0.0;0.0;0.0;0.0;0.0;0.0;0.0;0.0;0.0;0.0;0.30000000000000004;0.0;0.0;0.0;0.0;0.0;0.0;0.0;0.30000000000000004;0.0;0.0;0.0,,,,,0.0,0.060271539770541005
mp-757712,Ba4Fe4O11,Ba4 Fe4 O11,,-2.226388043947368,Triclinic,P1,Ba;Fe;O,825.3589106888476,53.997296,,15,45,FM,0.0;0.0;0.0;0.0;0.0;0.0;0.0;0.0;0.0;0.0;0.0;0.0;3.8;4.1;4.2;4.1;4.2;4.3;4.0;4.2;4.1;4.0;4.1;4.1;0.0;0.0;0.2;0.0;0.0;0.0;0.0;0.0;0.0;0.0;0.0;0.30000000000000004;0.0;0.0;0.0;0.0;0.0;0.0;0.0;0.0;0.0;0.0;0.0;0.0;0.2;0.0;0.0;0.0;0.0;0.0;0.0;0.0;0.0,,,,,0.0,0.065422806127983
mp-3205497,Mn6In5SbRh12,Mn6 In5 Sb1 Rh12,,-0.584092313204019,Orthorhombic,Pmmm,In;Mn;Rh;Sb,367.48929861950126,27.7270405,,18,8,FM,4.0;4.0;4.0;4.0;4.0;4.0;0.0;0.0;0.0;0.0;0.0;0.0;0.30000000000000004;0.30000000000000004;0.30000000000000004;0.30000000000000004;0.30000000000000004;0.30000000000000004;0.30000000000000004;0.30000000000000004;0.30000000000000004;0.30000000000000004;0.30000000000000004;0.30000000000000004,,,,,0.0,0.07544992630848901
mp-550468,Co2P2O7,Co2 P2 O7,,-2.022137829291126,Monoclinic,P2_1/c,Co;O;P,234.02360752382376,12.0000006,,4,4,FM,2.7;2.7;2.7;2.7;0.0;0.0;0.0;0.0;0.0;0.0;0.0;0.0;0.0;0.0;0.0;0.0;0.0;0.0;0.0;0.0;0.0;0.0,,,,,0.0,0.051276880682981
mp-20641,MnCoO3,Mn1 Co1 O3,,-1.734569643146552,Trigonal,R-3,Co;Mn;O,96.19991342161018,11.9987934,,4,2,FM,2.9;2.9;2.7;2.7;0.0;0.0;0.0;0.0;0.0;0.0,,,,,0.025153537277777003,0.124727694373419
mp-3210492,RbMn3NiO8,Rb1 Mn3 Ni1 O8,,-1.8907161126690981,Monoclinic,C2/m,Mn;Ni;O;Rb,191.1151671038021,10.0003118,,4,3,FM,0.0;2.9;2.9;2.9;0.9;0.0;0.0;0.0;0.0;0.0;0.0;0.0;0.0,,,,,0.0,0.052326102378721005
mp-21882,Ce(FeGe)2,Ce1 Fe2 Ge2,,-0.45006755400000004,Tetragonal,I4/mmm,Ce;Fe;Ge,87.8776319261765,6.2336122,,3,2,FM,0.8;2.8;2.8;0.0;0.0,,,,,0.0,0.070935140869939
mp-559026,MnV2TeO7,Mn1 V2 Te1 O7,,-2.185949551781608,Triclinic,P-1,Mn;O;Te;V,304.95121491318906,13.9993367,,6,3,FM,4.6;4.6;1.2;1.1;1.1;1.2;0.0;0.0;0.0;0.0;0.0;0.0;0.0;0.0;0.0;0.0;0.0;0.0;0.0;0.0;0.0;0.0,,,,,0.0,0.045906807434707
mp-1216153,Y2CrFeO6,Y2 Cr1 Fe1 O6,,-3.008841782250002,Monoclinic,P2_1/c,Cr;Fe;O;Y,222.6686186073264,16.0000002,,4,2,FM,0.0;0.0;0.0;0.0;2.9;2.9;4.1;4.1;0.0;0.0;0.0;0.0;0.0;0.0;0.0;0.0;0.0;0.0;0.0;0.0,,,,,0.0,0.07185565842223901
mp-778008,Mn7(P2O7)4,Mn7 P8 O28,,-2.550460003433955,Orthorhombic,C222_1,Mn;O;P,1035.295287001208,65.9999702,,14,5,FM,4.7;4.7;4.7;4.7;4.1;4.1;4.5;4.5;4.1;4.1;4.7;4.7;4.7;4.7;0.0;0.0;0.0;0.0;0.0;0.0;0.0;0.0;0.0;0.0;0.0;0.0;0.0;0.0;0.0;0.0;0.0;0.0;0.0;0.0;0.0;0.0;0.0;0.0;0.0;0.0;0.0;0.0;0.0;0.0;0.0;0.0;0.0;0.0;0.0;0.0;0.0;0.0;0.0;0.0;0.0;0.0;0.0;0.0;0.0;0.0;0.0;0.0;0.0;0.0;0.0;0.0;0.0;0.0;0.0;0.0;0.0;0.0;0.0;0.0;0.0;0.0;0.0;0.0;0.0;0.0;0.0;0.0;0.0;0.0;0.0;0.0,,,,,0.0,0.063749899211047
mp-865193,Co3Pt,Co3 Pt1,,-0.12543812874999802,Hexagonal,P6_3/mmc,Co;Pt,96.06905639314043,12.0642663,,8,3,FM,2.0;2.0;2.0;2.0;2.0;2.0;0.30000000000000004;0.30000000000000004,,,,,0.0,0.12557910687318202
mp-19448,Ni3TeO6,Ni3 Te1 O6,,-1.205810747249999,Trigonal,R3,Ni;O;Te,103.10702224869901,5.9999998,,3,3,FM,1.7000000000000002;1.7000000000000002;1.7000000000000002;0.0;0.0;0.0;0.0;0.0;0.0;0.0,,,,,0.0,0.058191960830055005
mp-1202591,Mn2AsHO5,Mn2 As1 H1 O5,,-1.68608781960728,Orthorhombic,Pnnm,As;H;Mn;O,467.8144974111562,40.0000007,,8,2,FM,4.6;4.6;4.6;4.6;4.5;4.5;4.5;4.5;0.0;0.0;0.0;0.0;0.0;0.0;0.0;0.0;0.0;0.0;0.0;0.0;0.0;0.0;0.0;0.0;0.0;0.0;0.0;0.0;0.0;0.0;0.0;0.0;0.0;0.0;0.0;0.0,,,,,0.034996035138899005,0.08550397843879601
mp-19185,Mn3(BO3)2,Mn3 B2 O6,,-2.297483000540752,Orthorhombic,Pnnm,B;Mn;O,229.127310559627,30.0000017,,6,3,FM,4.5;4.6;4.6;4.5;4.6;4.6;0.0;0.0;0.0;0.0;0.0;0.0;0.0;0.0;0.0;0.0;0.0;0.0;0.0;0.0;0.0;0.0,,,,,0.0,0.130931583959708
mp-542988,Gd(CoGe)2,Gd1 Co2 Ge2,,-0.537653754000001,Tetragonal,I4/mmm,Co;Gd;Ge,78.74491561921982,7.3143545,,3,2,FM,7.0;0.1;0.1;-0.0;-0.0,,,,,0.0,0.092886689159328
mp-1532,NpNi2,Np1 Ni2,,-0.19839139791666502,Cubic,Fd-3m,Ni;Np,88.24122933432646,7.7059,,6,2,FM,3.5;3.5;0.1;0.1;0.1;0.1,,,,,0.0,0.08732765916943401
mp-11500,MnNi,Mn1 Ni1,,-0.36253736724137803,Cubic,Pm-3m,Mn;Ni,24.774270632233222,4.7222685,,2,2,FM,3.8;0.9,,,,,0.0,0.190611807310119
mp-1209999,NaMnFeF6,Na1 Mn1 Fe1 F6,,-2.858278394367815,Trigonal,P321,F;Fe;Mn;Na,373.07574404506147,30.0042803,,6,3,FM,0.0;0.0;0.0;4.7;4.7;4.7;4.5;4.5;4.5;0.0;0.0;0.0;0.0;0.0;0.0;0.0;0.0;0.0;0.0;0.0;0.0;0.0;0.0;0.0;0.0;0.0;0.0,,,,,0.0,0.080424098266694
mp-1226311,Cs2MnNiF6,Cs2 Mn1 Ni1 F6,,-2.798176958724138,Trigonal,R3m,Cs;F;Mn;Ni,348.37111751850614,14.002517,,4,4,FM,0.0;0.0;0.0;0.0;4.7;4.7;1.8;1.8;0.0;0.0;0.0;0.0;0.0;0.0;0.0;0.0;0.0;0.0;0.0;0.0,,,,,0.0,0.040194253472394005
mp-3205042,FeCuAg2F7,Fe1 Cu1 Ag2 F7,,-1.860106104090909,Orthorhombic,Imma,Ag;Cu;F;Fe,289.9090122526452,11.9968794,,4,4,FM,4.3;4.3;0.8;0.8;0.0;0.0;0.0;0.0;0.0;0.0;0.0;0.0;0.0;0.0;0.0;0.0;0.0;0.0;0.0;0.0;0.0;0.0,,,,,0.0,0.041381533146493
mp-5927,Cs2Mn3Te4,Cs2 Mn3 Te4,,-0.9493663031609221,Orthorhombic,Ibam,Cs;Mn;Te,672.321136393917,29.9999994,,6,3,FM,0.0;0.0;0.0;0.0;4.4;4.4;4.4;4.4;4.4;4.4;0.0;0.0;0.0;0.0;0.0;0.0;0.0;0.0,,,,,0.0,0.044621532443422006
mp-1196071,Ba2Fe2O5,Ba2 Fe2 O5,,-2.299320453968254,Monoclinic,P2_1/c,Ba;Fe;O,1993.0198226307202,140.0002329,,98,25,FM,0.0;0.0;0.0;0.0;0.0;0.0;0.0;0.0;0.0;0.0;0.0;0.0;0.0;0.0;0.0;0.0;0.0;0.0;0.0;0.0;0.0;0.0;0.0;0.0;0.0;0.0;0.0;0.0;4.3;4.3;4.3;4.3;4.2;4.2;4.2;4.2;4.2;4.2;4.2;4.2;4.2;4.2;4.2;4.2;4.3;4.3;4.3;4.3;4.3;4.3;4.3;4.3;4.4;4.4;4.4;4.4;0.2;0.2;0.2;0.2;0.2;0.2;0.2;0.2;0.2;0.2;0.2;0.2;0.2;0.2;0.2;0.2;0.2;0.2;0.2;0.2;0.2;0.2;0.2;0.2;0.2;0.2;0.2;0.2;0.2;0.2;0.2;0.2;0.2;0.2;0.2;0.2;0.2;0.2;0.2;0.2;0.2;0.2;0.2;0.2;0.2;0.2;0.2;0.2;0.2;0.2;0.2;0.2;0.2;0.2;0.2;0.2;0.2;0.2;0.2;0.2;0.2;0.2;0.2;0.2;0.2;0.2;0.2;0.2;0.2;0.2,,,,,0.0,0.07024527870234801
mp-3216034,Mn4Cu3(Pd2Au)3,Mn4 Cu3 Pd6 Au3,,-0.39752892862069006,Monoclinic,Cm,Au;Cu;Mn;Pd,235.83324400869657,18.6464288,,7,5,FM,4.2;4.2;4.2;4.2;0.1;0.1;0.1;0.0;0.0;0.0;0.0;0.0;0.0;0.0;0.0;0.0,,,,,0.0,0.07906615913451201
mp-1195488,SrFeNi2(PO4)3,Sr1 Fe1 Ni2 P3 O12,,-2.304342448890977,Orthorhombic,Imma,Fe;Ni;O;P;Sr,442.4992346579479,17.8360987,,6,2,FM,0.0;0.0;4.2;4.2;1.7000000000000002;1.7000000000000002;1.7000000000000002;1.7000000000000002;0.0;0.0;0.0;0.0;0.0;0.0;0.0;0.0;0.0;0.0;0.0;0.0;0.0;0.0;0.0;0.0;0.0;0.0;0.0;0.0;0.0;0.0;0.0;0.0;0.0;0.0;0.0;0.0;0.0;0.0,,,,,0.0,0.040307637399163
mp-504570,K3FeO3,K3 Fe1 O3,,-1.6203178332142851,Monoclinic,C2/m,Fe;K;O,250.14620530352772,10.0000004,,8,3,FM,0.0;0.0;0.0;0.0;0.0;0.0;3.9;3.9;0.2;0.30000000000000004;0.30000000000000004;0.2;0.2;0.2,,,,,0.0,0.039976622423138
mp-4664,MnGeRh2,Mn1 Ge1 Rh2,,-0.624856061120688,Cubic,Fm-3m,Ge;Mn;Rh,55.11757088868522,5.005034,,3,2,FM,3.9;0.0;0.5;0.5,,,,,0.0,0.09080650542652001
mp-22223,Fe3BO5,Fe3 B1 O5,,-1.8167707301388871,Orthorhombic,Pbam,B;Fe;O,355.03359641994285,52.0000006,,20,9,FM,3.9;3.9;3.9;3.8;3.8;3.8;3.9;3.8;3.8;3.9;3.9;3.8;0.0;0.0;0.0;0.0;0.0;0.0;0.30000000000000004;0.30000000000000004;0.0;0.0;0.30000000000000004;0.30000000000000004;0.30000000000000004;0.30000000000000004;0.30000000000000004;0.0;0.0;0.0;0.0;0.0;0.30000000000000004;0.0;0.0;0.0,,,,,0.0,0.146465013802505
mp-5529,MnFe2Si,Mn1 Fe2 Si1,,-0.17637652987068703,Cubic,Fm-3m,Fe;Mn;Si,42.663404774642764,3.0000767,,3,2,FM,2.9;0.1;0.1;0.0,,,,,0.088082520749997,0.070319673637091
mp-583463,FeCl3,Fe1 Cl3,,-0.9925012027083331,Trigonal,P312,Cl;Fe,578.1438476765462,30.0000009,,24,24,FM,4.0;4.0;4.0;4.0;4.0;4.0;0.2;0.2;0.2;0.2;0.2;0.2;0.2;0.2;0.2;0.2;0.2;0.2;0.2;0.2;0.2;0.2;0.2;0.2,,,,,0.0,0.051890201756127005
mp-510225,HoMn2O5,Ho1 Mn2 O5,,-2.781830725651938,Orthorhombic,Pbam,Ho;Mn;O,345.59865596409134,28.0000009,,8,2,FM,0.0;0.0;0.0;0.0;3.0;3.0;3.0;3.0;3.6;3.6;3.6;3.6;0.0;0.0;0.0;0.0;0.0;0.0;0.0;0.0;0.0;0.0;0.0;0.0;0.0;0.0;0.0;0.0;0.0;0.0;0.0;0.0,,,,,0.0,0.081018836204355
mp-1418,FeNi3,Fe1 Ni3,,-0.1257942525,Cubic,Pm-3m,Fe;Ni,43.25895847991391,5.2755722,,4,2,FM,3.2;0.8;0.8;0.8,,,,,0.0,0.12195328748956201
mp-556158,RbMn6As7O24,Rb1 Mn6 As7 O24,,-1.911787821383848,Monoclinic,P2_1/m,As;Mn;O;Rb,1049.5022595464998,60.0000496,,12,3,FM,0.0;0.0;4.7;4.7;4.7;4.7;4.7;4.7;4.7;4.7;4.7;4.7;4.7;4.7;0.0;0.0;0.0;0.0;0.0;0.0;0.0;0.0;0.0;0.0;0.0;0.0;0.0;0.0;0.0;0.0;0.0;0.0;0.0;0.0;0.0;0.0;0.0;0.0;0.0;0.0;0.0;0.0;0.0;0.0;0.0;0.0;0.0;0.0;0.0;0.0;0.0;0.0;0.0;0.0;0.0;0.0;0.0;0.0;0.0;0.0;0.0;0.0;0.0;0.0;0.0;0.0;0.0;0.0;0.0;0.0;0.0;0.0;0.0;0.0;0.0;0.0,,,,,0.0,0.057170005165998
mp-662563,CsFe2Se3,Cs1 Fe2 Se3,,-0.680021773697916,Orthorhombic,Cmcm,Cs;Fe;Se,359.7431543178494,17.2574546,,10,3,FM,0.0;0.0;3.6;3.6;3.6;3.6;0.2;0.2;0.30000000000000004;0.30000000000000004;0.30000000000000004;0.30000000000000004,,,,,0.0,0.04797159971737
mp-1173584,RbMn6O12,Rb1 Mn6 O12,,-2.115494813060346,Triclinic,P-1,Mn;O;Rb,420.36542926141567,37.9952091,,12,12,FM,0.0;0.0;3.1;3.1;3.1;3.1;3.1;3.1;3.1;3.1;3.1;3.1;3.1;3.1;0.0;0.0;0.0;0.0;0.0;0.0;0.0;0.0;0.0;0.0;0.0;0.0;0.0;0.0;0.0;0.0;0.0;0.0;0.0;0.0;0.0;0.0;0.0;0.0,,,,,0.0,0.090386141331264
mp-555898,K2Cr3(ClF3)2,K2 Cr3 Cl2 F6,,-2.656148201115384,Monoclinic,P2_1/c,Cl;Cr;F;K,487.65527010754136,23.9986879,,6,2,FM,0.0;0.0;0.0;0.0;3.8;3.8;3.8;3.8;3.8;3.8;0.0;0.0;0.0;0.0;0.0;0.0;0.0;0.0;0.0;0.0;0.0;0.0;0.0;0.0;0.0;0.0,,,,,0.0,0.049212403456047
mp-3200922,KMnCuS2,K1 Mn1 Cu1 S2,,-1.023284278771551,Tetragonal,I-4m2,Cu;K;Mn;S,103.24659225992934,5.0000019,,2,2,FM,0.0;4.3;0.1;0.0;0.0,,,,,0.0,0.048427766869168005
mp-14999,BaFeF5,Ba1 Fe1 F5,,-3.289894445535714,Monoclinic,P2_1/c,Ba;F;Fe,857.84248605609,39.9999995,,8,2,FM,0.0;0.0;0.0;0.0;0.0;0.0;0.0;0.0;4.3;4.3;4.3;4.3;4.3;4.3;4.3;4.3;0.0;0.0;0.0;0.0;0.0;0.0;0.0;0.0;0.0;0.0;0.0;0.0;0.0;0.0;0.0;0.0;0.0;0.0;0.0;0.0;0.0;0.0;0.0;0.0;0.0;0.0;0.0;0.0;0.0;0.0;0.0;0.0;0.0;0.0;0.0;0.0;0.0;0.0;0.0;0.0,,,,,0.0,0.046628606242037005
mp-549711,CaFeClO2,Ca1 Fe1 Cl1 O2,,-2.374016877,Monoclinic,C2/m,Ca;Cl;Fe;O,169.168876731912,9.9996457,,6,3,FM,0.0;0.0;4.3;4.3;0.0;0.0;0.30000000000000004;0.2;0.2;0.30000000000000004,,,,,0.0,0.05911043386453801
mp-1217948,TaMnNbO6,Ta1 Mn1 Nb1 O6,,-2.984529658918264,Orthorhombic,P2_12_12,Mn;Nb;O;Ta,440.6762849635959,20.0000001,,4,2,FM,0.0;0.0;0.0;0.0;4.6;4.6;4.6;4.6;0.0;0.0;0.0;0.0;0.0;0.0;0.0;0.0;0.0;0.0;0.0;0.0;0.0;0.0;0.0;0.0;0.0;0.0;0.0;0.0;0.0;0.0;0.0;0.0;0.0;0.0;0.0;0.0,,,,,0.0,0.045384788749528004
mp-1207882,UMnC2,U1 Mn1 C2,,-0.21746729924568603,Orthorhombic,Pnma,C;Mn;U,189.24413024459432,13.9530359,,8,2,FM,1.0;1.0;1.0;1.0;2.8;2.8;2.8;2.8;-0.0;-0.0;-0.0;-0.0;-0.0;-0.0;-0.0;-0.0,,,,,0.0,0.073730349691512
mp-20311,FeSe,Fe1 Se1,,-0.24090977203124803,Tetragonal,P4/nmm,Fe;Se,90.60598544313967,7.7262373,,4,2,FM,3.4;3.4;0.2;0.2,,,,,0.0,0.085272923882591
mp-3215072,MnSO4F,Mn1 S1 O4 F1,,-1.876722334613608,Triclinic,P-1,F;Mn;O;S,169.1444812710183,8.0000074,,2,2,FM,3.7;3.8;0.0;0.0;0.0;0.0;0.0;0.0;0.0;0.0;0.0;0.0;0.0;0.0,,,,,0.0,0.047296886897431
mp-18121,Fe2PO4F,Fe2 P1 O4 F1,,-2.365666674642858,Monoclinic,C2/c,F;Fe;O;P,382.76320003576444,31.9998599,,8,2,FM,3.8;3.8;3.8;3.8;3.8;3.8;3.8;3.8;0.0;0.0;0.0;0.0;0.0;0.0;0.0;0.0;0.0;0.0;0.0;0.0;0.0;0.0;0.0;0.0;0.0;0.0;0.0;0.0;0.0;0.0;0.0;0.0,,,,,0.0,0.083602237354609
mp-1212708,Gd2NiPtO6,Gd2 Ni1 Pt1 O6,,-2.514124334999999,Monoclinic,P2_1/c,Gd;Ni;O;Pt,241.81430561840543,32.000267,,6,2,FM,6.9;6.9;6.9;6.9;1.8;1.8;0.0;0.0;0.0;0.0;0.0;0.0;0.0;0.0;0.0;0.0;0.0;0.0;0.0;0.0,,,,,0.0,0.132334052438146
mp-3207790,Mn2AsO4F,Mn2 As1 O4 F1,,-2.005394284558191,Monoclinic,Cc,As;F;Mn;O,412.1419144965263,40.0003445,,8,4,FM,4.6;4.6;4.6;4.6;4.6;4.6;4.6;4.6;0.0;0.0;0.0;0.0;0.0;0.0;0.0;0.0;0.0;0.0;0.0;0.0;0.0;0.0;0.0;0.0;0.0;0.0;0.0;0.0;0.0;0.0;0.0;0.0,,,,,0.0,0.097054784027158
mp-28519,Fe4As5O13,Fe4 As5 O13,,-1.434024932102271,Triclinic,P-1,As;Fe;O,589.8748475888096,38.0000009,,8,5,FM,4.1;4.1;4.1;4.1;4.0;4.0;4.0;4.0;0.0;0.0;0.0;0.0;0.0;0.0;0.0;0.0;0.0;0.0;0.0;0.0;0.0;0.0;0.0;0.0;0.0;0.0;0.0;0.0;0.0;0.0;0.0;0.0;0.0;0.0;0.0;0.0;0.0;0.0;0.0;0.0;0.0;0.0;0.0;0.0,,,,,0.0,0.06442044622741501
mp-1184368,FeRh3,Fe1 Rh3,,-0.030235877499998003,Hexagonal,P6_3/mmc,Fe;Rh,107.06461805095587,6.8985841,,8,2,FM,3.4;3.4;0.30000000000000004;0.4;0.30000000000000004;0.30000000000000004;0.4;0.30000000000000004,,,,,0.0,0.064433836552022