ID,pretty_formula,compound,energy_cell,energy_atom,lattice_system,spacegroup,species,volume_cell,moment_cell,mag_field,mag_sites_MP,mag_sites,mag_type,magmom,comment1,icsd_ids,doi,comment2,e_above_hull,magnetization_norm_vol
mp-18870,Mn3Cd2O8,Mn3 Cd2 O8,,-1.8715050533421742,Monoclinic,C2/m,Cd;Mn;O,146.56131453997776,9.0000001,,3,2,FM,2.9;2.8;2.8;0.0;0.0;0.0;0.0;0.0;0.0;0.0;0.0;0.0;0.0,,,,,0.0,0.061407746841306
mp-27443,Ba2MnO3,Ba2 Mn1 O3,,-2.499741605955461,Monoclinic,C2/c,Ba;Mn;O,436.2071226942557,20.0,,4,4,FM,0.0;0.0;0.0;0.0;0.0;0.0;0.0;0.0;4.3;4.3;4.3;4.3;0.0;0.0;0.0;0.0;0.0;0.0;0.0;0.0;0.0;0.0;0.0;0.0,,,,,0.0059973303065170005,0.045849778601662006
mp-1212984,DyMnFeO5,Dy1 Mn1 Fe1 O5,,-2.525895946824713,Orthorhombic,Pbam,Dy;Fe;Mn;O,366.4594223572795,32.0014324,,12,3,FM,0.1;0.1;0.1;0.1;3.2;3.2;3.2;3.2;4.3;4.3;4.3;4.3;0.0;0.0;0.0;0.0;0.0;0.0;0.0;0.0;0.0;0.0;0.0;0.0;0.0;0.0;0.0;0.0;0.0;0.0;0.0;0.0,,,,,0.0,0.08732599149490601
mp-756320,Li3Fe4SbO8,Li3 Fe4 Sb1 O8,,-1.849916090624999,Monoclinic,C2/m,Fe;Li;O;Sb,166.65545205689895,16.0000001,,4,3,FM,0.0;0.0;0.0;3.8;3.8;3.8;3.8;0.0;0.0;0.0;0.0;0.0;0.0;0.0;0.0;0.0,,,,,0.0,0.09600646064994801
mp-1111,Mn5Si3,Mn5 Si3,,-0.46220868530172504,Hexagonal,P6_3/mcm,Mn;Si,202.23712316563683,27.9037658,,10,3,FM,3.3;3.3;3.3;3.3;3.3;3.3;2.4;2.4;2.4;2.4;0.0;0.0;0.0;0.0;0.0;0.0,,,,,0.0,0.13797548819534
mp-1040883,CaFe3(P2O7)2,Ca1 Fe3 P4 O14,,-2.58792971538961,Monoclinic,P2_1/c,Ca;Fe;O;P,524.6030561510199,24.0003196,,6,2,FM,0.0;0.0;3.8;3.8;3.8;3.8;3.8;3.8;0.0;0.0;0.0;0.0;0.0;0.0;0.0;0.0;0.0;0.0;0.0;0.0;0.0;0.0;0.0;0.0;0.0;0.0;0.0;0.0;0.0;0.0;0.0;0.0;0.0;0.0;0.0;0.0;0.0;0.0;0.0;0.0;0.0;0.0;0.0;0.0,,,,,0.0,0.04574948490786301
mp-5396,MnCo2Sb,Mn1 Co2 Sb1,,-0.21638932112069,Cubic,Fm-3m,Co;Mn;Sb,53.313868336593664,6.0001644,,3,2,FM,3.6;1.2;1.2;0.0,,,,,0.0,0.11254415759363601
mp-1443950,MgCoF6,Mg1 Co1 F6,,-2.523419814375,Trigonal,R-3,Co;F;Mg,96.64954197285985,4.9999999,,7,2,FM,0.0;3.5;0.2;0.2;0.2;0.2;0.2;0.2,,,,,0.0,0.051733301554642
mp-1018062,FeSnRh2,Fe1 Sn1 Rh2,,-0.37773878000000105,Tetragonal,I4/mmm,Fe;Rh;Sn,59.910360193472265,4.129011,,3,2,FM,3.4;0.0;0.4;0.4,,,,,0.0,0.06891981598284301
mp-3201163,ZnFePdPt5,Zn1 Fe1 Pd1 Pt5,,-0.346720715625004,Tetragonal,P4/mmm,Fe;Pd;Pt;Zn,117.59481252319779,4.7358243,,6,3,FM,0.0;3.5;0.0;0.30000000000000004;0.2;0.2;0.2;0.2,,,,,0.0,0.040272391259314005
mp-540569,CsCr5S8,Cs1 Cr5 S8,,-1.123934306607143,Monoclinic,C2/m,Cr;Cs;S,271.49034120284614,15.0000005,,5,3,FM,0.0;3.0;3.0;3.0;3.1;3.1;0.0;0.0;0.0;0.0;0.0;0.0;0.0;0.0,,,,,0.0,0.055250586203332
mp-3203166,LuMnFeSi2,Lu1 Mn1 Fe1 Si2,,-0.6283044982298861,Tetragonal,I-4m2,Fe;Lu;Mn;Si,74.21741446295664,4.0273258,,2,2,FM,0.0;2.6;1.8;0.0;0.0,,,,,0.0,0.054263892499382
mp-3201933,Mn2AlCo4Si,Mn2 Al1 Co4 Si1,,-0.484524435495687,Trigonal,R-3m,Al;Co;Mn;Si,88.7643002483453,9.0000815,,6,3,FM,3.0;3.0;0.0;0.8;0.9;0.8;0.9;0.0,,,,,0.0,0.101393031599635
mp-865247,GaFeIr2,Ga1 Fe1 Ir2,,-0.36994977250000005,Cubic,Fm-3m,Fe;Ga;Ir,54.87808755402803,4.5438461,,3,2,FM,0.0;3.4;0.6000000000000001;0.6000000000000001,,,,,0.0,0.08279891487702601
mp-18331,GdCrO3,Gd1 Cr1 O3,,-3.153344783249997,Orthorhombic,Pnma,Cr;Gd;O,224.59516837845578,40.0000011,,8,2,FM,6.9;6.9;6.9;6.9;2.8;2.8;2.8;2.8;0.0;0.0;0.0;0.0;0.0;0.0;0.0;0.0;0.0;0.0;0.0;0.0,,,,,0.0,0.178098226194241
mp-3213185,Ba(Cr5Se8)2,Ba1 Cr10 Se16,,-0.959982769629629,Triclinic,P-1,Ba;Cr;Se,606.1639552756641,29.999967,,10,6,FM,0.0;3.1;3.1;3.1;3.1;3.1;3.1;3.1;3.1;3.1;3.1;0.0;0.0;0.0;0.0;0.0;0.0;0.0;0.0;0.0;0.0;0.0;0.0;0.0;0.0;0.0;0.0,,,,,0.0,0.049491505951318
mp-1221557,MnZn(CrS2)4,Mn1 Zn1 Cr4 S8,,-1.016192887709358,Cubic,F-43m,Cr;Mn;S;Zn,256.8295635828423,16.9999835,,5,2,FM,4.1;0.0;3.0;3.0;3.0;3.0;0.0;0.0;0.0;0.0;0.0;0.0;0.0;0.0,,,,,0.0,0.066191692509404
mp-1918,FeRh,Fe1 Rh1,,-0.23237896500000202,Cubic,Pm-3m,Fe;Rh,26.787060836875803,4.3682159,,2,2,FM,3.4;1.1,,,,,0.0,0.16307186244138402
mp-542151,V2Ni3O8,V2 Ni3 O8,,-1.958283837692306,Orthorhombic,Cmce,Ni;O;V,273.9842833508586,11.9999975,,10,3,FM,0.2;0.2;0.2;0.2;1.6;1.6;1.6;1.6;1.6;1.6;0.0;0.0;0.0;0.0;0.0;0.0;0.0;0.0;0.0;0.0;0.0;0.0;0.0;0.0;0.0;0.0,,,,,0.0,0.043798123575698004
mp-1228215,Cs3(Cr5Se8)4,Cs3 Cr20 Se32,,-0.927332073090908,Triclinic,P-1,Cr;Cs;Se,1244.4824609853483,59.0003825,,20,10,FM,0.0;0.0;0.0;3.1;3.1;3.1;3.1;3.1;3.1;3.1;3.1;3.2;3.2;3.2;3.2;3.2;3.2;3.2;3.2;3.1;3.1;3.1;3.1;0.0;0.0;0.0;0.0;0.0;0.0;0.0;0.0;0.0;0.0;0.0;0.0;0.0;0.0;0.0;0.0;0.0;0.0;0.0;0.0;0.0;0.0;0.0;0.0;0.0;0.0;0.0;0.0;0.0;0.0;0.0;0.0,,,,,0.0,0.047409573336441004
mp-3202622,Mn2ZnSnRh4,Mn2 Zn1 Sn1 Rh4,,-0.565710135495688,Trigonal,R-3m,Mn;Rh;Sn;Zn,116.00469767370129,9.0069918,,6,3,FM,3.9;3.9;0.0;0.0;0.30000000000000004;0.30000000000000004;0.30000000000000004;0.30000000000000004,,,,,0.0,0.07764333669775
mp-559323,Mn4Bi3NO15,Mn4 Bi3 N1 O15,,-1.647322340074963,Trigonal,P3,Bi;Mn;N;O,292.27859474623426,12.0022,,4,4,FM,3.1;3.1;3.1;3.1;0.0;0.0;0.0;0.0;0.0;0.0;0.0;0.0;0.0;0.0;0.0;0.0;0.0;0.0;0.0;0.0;0.0;0.0;0.0,,,,,0.0,0.041064245605877
mp-1228608,Ba6Pr2Fe4O15,Ba6 Pr2 Fe4 O15,,-2.675031596234568,Monoclinic,Cc,Ba;Fe;O;Pr,894.0335538377697,39.9945389,,8,4,FM,0.0;0.0;0.0;0.0;0.0;0.0;0.0;0.0;0.0;0.0;0.0;0.0;0.0;0.0;0.0;0.0;4.2;4.2;4.2;4.2;4.2;4.2;4.3;4.3;0.0;0.0;0.0;0.0;0.0;0.0;0.0;0.0;0.0;0.0;0.0;0.0;0.0;0.0;0.0;0.0;0.0;0.0;0.0;0.0;0.0;0.0;0.0;0.0;0.0;0.0;0.0;0.0;0.0;0.0,,,,,0.0,0.044734941690183
mp-11270,MnBe2,Mn1 Be2,,-0.198265976494253,Hexagonal,P6_3/mmc,Be;Mn,102.89541086489749,5.503534099999999,,4,2,FM,1.6;1.5;1.5;1.6;0.0;0.0;0.0;0.0;0.0;0.0;0.0;0.0,,,,,0.0,0.05348668180378
mp-504699,Ba2UFeO6,Ba2 U1 Fe1 O6,,-3.109767488999999,Cubic,Fm-3m,Ba;Fe;O;U,150.93698106110466,6.0022379,,2,2,FM,0.0;0.0;1.2;4.3;0.0;0.0;0.0;0.0;0.0;0.0,,,,,0.0,0.039766516183135
mp-865015,MnSiRh2,Mn1 Si1 Rh2,,-0.776416979870688,Cubic,Fm-3m,Mn;Rh;Si,52.75077876432485,4.9923249,,3,2,FM,3.9;0.0;0.6000000000000001;0.6000000000000001,,,,,0.0,0.094639833135056
mp-2899517,HoMnO3,Ho1 Mn1 O3,,-3.102850358813215,Orthorhombic,Cmc2_1,Ho;Mn;O,368.7595580414855,23.9999998,,6,2,FM,0.0;0.0;0.0;0.0;0.0;0.0;3.7;3.7;3.7;3.7;3.7;3.7;0.0;0.0;0.0;0.0;0.0;0.0;0.0;0.0;0.0;0.0;0.0;0.0;0.0;0.0;0.0;0.0;0.0;0.0,,,,,0.0,0.065083058260146
mp-1199430,TiFeGe2,Ti1 Fe1 Ge2,,-0.345216496249998,Orthorhombic,Pbam,Fe;Ge;Ti,691.1195950813702,27.6565019,,20,4,FM,0.30000000000000004;0.30000000000000004;0.30000000000000004;0.30000000000000004;0.30000000000000004;0.30000000000000004;0.30000000000000004;0.30000000000000004;0.0;0.0;0.0;0.0;2.1;2.1;2.1;2.1;2.1;2.1;2.1;2.1;2.3;2.3;2.3;2.3;0.0;0.0;0.0;0.0;0.0;0.0;0.0;0.0;0.0;0.0;0.0;0.0;0.0;0.0;0.0;0.0;0.0;0.0;0.0;0.0;0.0;0.0;0.0;0.0,,,,,0.007234518791666001,0.040016955237311004
mp-695994,MnAsH3O5,Mn1 As1 H3 O5,,-1.625316857168104,Monoclinic,P2_1,As;H;Mn;O,903.125717162663,39.99943,,8,4,FM,4.7;4.7;4.7;4.7;4.7;4.7;4.7;4.7;0.0;0.0;0.0;0.0;0.0;0.0;0.0;0.0;0.0;0.0;0.0;0.0;0.0;0.0;0.0;0.0;0.0;0.0;0.0;0.0;0.0;0.0;0.0;0.0;0.0;0.0;0.0;0.0;0.0;0.0;0.0;0.0;0.0;0.0;0.0;0.0;0.0;0.0;0.0;0.0;0.0;0.0;0.0;0.0;0.0;0.0;0.0;0.0;0.0;0.0;0.0;0.0;0.0;0.0;0.0;0.0;0.0;0.0;0.0;0.0;0.0;0.0;0.0;0.0;0.0;0.0;0.0;0.0;0.0;0.0;0.0;0.0,,,,,0.0,0.04428999112733201
mp-3208376,MgGa6Fe5Rh12,Mg1 Ga6 Fe5 Rh12,,-0.594827855208334,Orthorhombic,Pmmm,Fe;Ga;Mg;Rh,324.30051538752394,23.1863901,,17,7,FM,0.0;0.0;0.0;0.0;0.0;0.0;0.0;3.4;3.4;3.4;3.4;3.4;0.4;0.4;0.5;0.5;0.6000000000000001;0.6000000000000001;0.6000000000000001;0.6000000000000001;0.6000000000000001;0.6000000000000001;0.5;0.5,,,,,0.0,0.07149661810525701
mp-1221002,Na7Mn4Fe8(PO4)12,Na7 Mn4 Fe8 P12 O48,,-2.450929517051817,Monoclinic,C2,Fe;Mn;Na;O;P,917.4807577343348,57.0000121,,12,7,FM,0.0;0.0;0.0;0.0;0.0;0.0;0.0;4.7;4.7;4.7;4.7;4.1;4.4;4.1;4.4;4.4;3.8;3.8;4.4;0.0;0.0;0.0;0.0;0.0;0.0;0.0;0.0;0.0;0.0;0.0;0.0;0.0;0.0;0.0;0.0;0.0;0.0;0.0;0.0;0.0;0.0;0.0;0.0;0.0;0.0;0.0;0.0;0.0;0.0;0.0;0.0;0.0;0.0;0.0;0.0;0.0;0.0;0.0;0.0;0.0;0.0;0.0;0.0;0.0;0.0;0.0;0.0;0.0;0.0;0.0;0.0;0.0;0.0;0.0;0.0;0.0;0.0;0.0;0.0,,,,,0.0,0.062126656738565
mp-19358,SmMn2O5,Sm1 Mn2 O5,,-2.747276592526939,Orthorhombic,Pbam,Mn;O;Sm,362.0216409775965,27.9999989,,8,2,FM,0.0;0.0;0.0;0.0;3.6;3.6;3.6;3.6;3.0;3.0;3.0;3.0;0.0;0.0;0.0;0.0;0.0;0.0;0.0;0.0;0.0;0.0;0.0;0.0;0.0;0.0;0.0;0.0;0.0;0.0;0.0;0.0,,,,,0.0,0.07734343953689901
mp-1228537,Ba9Ca3La4(Fe4O15)2,Ba9 Ca3 La4 Fe8 O30,,-2.747765394444444,Triclinic,P1,Ba;Ca;Fe;La;O,853.439735218293,39.9966387,,8,8,FM,0.0;0.0;0.0;0.0;0.0;0.0;0.0;0.0;0.0;0.0;0.0;0.0;0.0;0.0;0.0;0.0;4.3;4.3;4.2;4.2;4.2;4.2;4.2;4.2;0.0;0.0;0.0;0.0;0.0;0.0;0.0;0.0;0.0;0.0;0.0;0.0;0.0;0.0;0.0;0.0;0.0;0.0;0.0;0.0;0.0;0.0;0.0;0.0;0.0;0.0;0.0;0.0;0.0;0.0,,,,,0.0,0.046865217366249004
mp-3203197,Mn2GaCo4As,Mn2 Ga1 Co4 As1,,-0.300633135183188,Trigonal,R-3m,As;Co;Ga;Mn,92.31453394220397,10.0330169,,6,3,FM,3.3;3.3;0.0;1.0;0.9;1.0;0.9;0.0,,,,,0.0,0.10868296108477801
mp-557403,LiFe2F6,Li1 Fe2 F6,,-2.753536442592592,Tetragonal,P4_2nm,F;Fe;Li,213.0242805197013,18.001008,,4,2,FM,0.0;0.0;3.8;3.8;4.5;4.5;0.0;0.0;0.0;0.0;0.0;0.0;0.0;0.0;0.0;0.0;0.0;0.0,,,,,0.0,0.084502141990969
mp-1220158,NdMnFeGe2,Nd1 Mn1 Fe1 Ge2,,-0.467753453086207,Tetragonal,I-4m2,Fe;Ge;Mn;Nd,86.3534908393813,3.5844974,,2,2,FM,-0.0;2.5;1.3;0.0;0.0,,,,,0.0,0.041509583053998
mp-1045401,Li(MnS2)2,Li1 Mn2 S4,,-1.006026342411739,Cubic,Fd-3m,Li;Mn;S,251.2744308981739,13.9994555,,4,2,FM,0.0;0.0;3.6;3.6;3.6;3.6;0.0;0.0;0.0;0.0;0.0;0.0;0.0;0.0,,,,,0.0,0.055713808404457006
mp-21171,MnGaCo2,Mn1 Ga1 Co2,,-0.27388216112069,Cubic,Fm-3m,Co;Ga;Mn,45.78552389714622,4.4203873,,3,2,FM,3.0;0.0;0.8;0.8,,,,,0.0,0.09654552189749001
mp-15842,Nb2Co12P7,Nb2 Co12 P7,,-0.591972447896826,Hexagonal,P-6,Co;Nb;P,235.48557652346588,9.9849312,,14,14,FM,0.4;0.5;0.5;0.7000000000000001;0.5;0.7000000000000001;1.3;1.3;1.3;0.8;0.8;0.8;0.7000000000000001;0.5;0.0;0.0;0.0;0.0;0.0;0.0;0.0,,,,,0.0,0.042401455526109
mp-1218831,Sr2FeRuO6,Sr2 Fe1 Ru1 O6,,-2.291433211,Cubic,Fm-3m,Fe;O;Ru;Sr,125.2648997899438,7.8719839,,8,3,FM,0.0;0.0;4.3;1.9;0.2;0.2;0.2;0.2;0.2;0.2,,,,,0.0,0.062842695066219
mp-1226457,Cs4Mn3O6,Cs4 Mn3 O6,,-1.823409082380637,Monoclinic,P2,Cs;Mn;O,1126.5791602662105,51.9999964,,12,12,FM,0.0;0.0;0.0;0.0;0.0;0.0;0.0;0.0;0.0;0.0;0.0;0.0;0.0;0.0;0.0;0.0;4.3;4.3;3.6;3.6;3.6;4.3;4.4;3.6;3.6;3.6;3.6;3.6;0.0;0.0;0.0;0.0;0.0;0.0;0.0;0.0;0.0;0.0;0.0;0.0;0.0;0.0;0.0;0.0;0.0;0.0;0.0;0.0;0.0;0.0;0.0;0.0,,,,,0.0,0.046157427932283
mp-22125,Np(CoGe)2,Np1 Co2 Ge2,,-0.38929859974999703,Tetragonal,I4/mmm,Co;Ge;Np,78.55126371280502,4.18175,,3,2,FM,3.6;0.2;0.2;0.0;0.0,,,,,0.0,0.05323593539232
mp-556514,Ni5Sn(BO5)2,Ni5 Sn1 B2 O10,,-1.859632013657408,Orthorhombic,Pnma,B;Ni;O;Sn,719.5563695965322,40.0014917,,20,4,FM,1.8;1.8;1.8;1.8;1.8;1.8;1.8;1.8;1.8;1.8;1.8;1.8;1.8;1.8;1.8;1.8;1.8;1.8;1.8;1.8;0.0;0.0;0.0;0.0;0.0;0.0;0.0;0.0;0.0;0.0;0.0;0.0;0.0;0.0;0.0;0.0;0.0;0.0;0.0;0.0;0.0;0.0;0.0;0.0;0.0;0.0;0.0;0.0;0.0;0.0;0.0;0.0;0.0;0.0;0.0;0.0;0.0;0.0;0.0;0.0;0.0;0.0;0.0;0.0;0.0;0.0;0.0;0.0;0.0;0.0;0.0;0.0,,,,,0.0,0.055591880483845
mp-1228690,Ba6La2Fe4O15,Ba6 La2 Fe4 O15,,-2.6480145198611122,Monoclinic,Cc,Ba;Fe;La;O,880.9222081723998,40.0000005,,26,19,FM,0.0;0.0;0.0;0.0;0.0;0.0;0.0;0.0;0.0;0.0;0.0;0.0;0.0;0.0;0.0;0.0;3.9;3.9;3.9;3.9;3.9;3.9;4.1;4.1;0.2;0.2;0.2;0.2;0.2;0.2;0.2;0.2;0.2;0.2;0.2;0.2;0.2;0.0;0.0;0.2;0.0;0.0;0.0;0.0;0.2;0.0;0.2;0.0;0.0;0.2;0.0;0.0;0.0;0.2,,,,,0.0,0.045406961169688
mp-1245396,Mn3SiN4,Mn3 Si1 N4,,-0.666014877306034,Orthorhombic,Pmn2_1,Mn;N;Si,166.90970751363864,21.8424177,,6,2,FM,3.7;3.7;3.7;3.7;3.3;3.3;0.0;0.0;0.0;0.0;0.0;0.0;0.0;0.0;0.0;0.0,,,,,0.0,0.13086367488970102
mp-1207977,VFe2BO5,V1 Fe2 B1 O5,,-2.217364028796297,Orthorhombic,Pbam,B;Fe;O;V,374.89487694029293,40.000606,,12,4,FM,1.9;1.9;1.9;1.9;3.8;3.8;3.8;3.8;3.8;3.8;3.8;3.8;0.0;0.0;0.0;0.0;0.0;0.0;0.0;0.0;0.0;0.0;0.0;0.0;0.0;0.0;0.0;0.0;0.0;0.0;0.0;0.0;0.0;0.0;0.0;0.0,,,,,0.0,0.106698193174751
mp-601820,Fe3Co,Fe3 Co1,,-0.12272172750000002,Tetragonal,P4/mmm,Co;Fe,45.778260642464964,9.7767383,,4,3,FM,2.7;2.8;2.8;1.8,,,,,0.0,0.21356727326006902
mp-540871,Na2Mn2Si2O7,Na2 Mn2 Si2 O7,,-2.640620402009283,Monoclinic,P2_1/c,Mn;Na;O;Si,697.026725900628,40.0037853,,8,2,FM,0.0;0.0;0.0;0.0;0.0;0.0;0.0;0.0;4.6;4.6;4.6;4.6;4.6;4.6;4.6;4.6;0.0;0.0;0.0;0.0;0.0;0.0;0.0;0.0;0.0;0.0;0.0;0.0;0.0;0.0;0.0;0.0;0.0;0.0;0.0;0.0;0.0;0.0;0.0;0.0;0.0;0.0;0.0;0.0;0.0;0.0;0.0;0.0;0.0;0.0;0.0;0.0,,,,,0.0,0.05739203937741501
mp-18601,DyMn2O5,Dy1 Mn2 O5,,-2.78133119690194,Orthorhombic,Pbam,Dy;Mn;O,348.25130004119944,28.0000004,,8,2,FM,0.0;0.0;0.0;0.0;3.6;3.6;3.6;3.6;3.0;3.0;3.0;3.0;0.0;0.0;0.0;0.0;0.0;0.0;0.0;0.0;0.0;0.0;0.0;0.0;0.0;0.0;0.0;0.0;0.0;0.0;0.0;0.0,,,,,0.0,0.080401711053734
mp-19256,Er2Mn2O7,Er2 Mn2 O7,,-3.02222195289838,Cubic,Fd-3m,Er;Mn;O,237.5485573616032,12.0000007,,8,2,FM,0.1;0.1;0.1;0.1;2.9;2.9;2.9;2.9;0.0;0.0;0.0;0.0;0.0;0.0;0.0;0.0;0.0;0.0;0.0;0.0;0.0;0.0,,,,,0.0,0.05051599063905501
mp-705094,Co2As2O5,Co2 As2 O5,,-1.241984387083333,Triclinic,P-1,As;Co;O,476.42236940428205,23.9999999,,8,4,FM,2.7;2.7;2.7;2.7;2.7;2.7;2.7;2.7;0.0;0.0;0.0;0.0;0.0;0.0;0.0;0.0;0.0;0.0;0.0;0.0;0.0;0.0;0.0;0.0;0.0;0.0;0.0;0.0;0.0;0.0;0.0;0.0;0.0;0.0;0.0;0.0,,,,,0.032646092841268,0.05037546815866201
mp-1225975,CsCrCoF6,Cs1 Cr1 Co1 F6,,-2.870498638295019,Orthorhombic,Imma,Co;Cr;Cs;F,295.4783705689777,11.9999821,,4,2,FM,0.0;0.0;2.9;2.9;2.8;2.8;0.0;0.0;0.0;0.0;0.0;0.0;0.0;0.0;0.0;0.0;0.0;0.0,,,,,0.0,0.040612049121878005
mp-3202977,Mn2B(PdPt)3,Mn2 B1 Pd3 Pt3,,-0.552994179051722,Trigonal,R3m,B;Mn;Pd;Pt,130.1895646382226,9.2890801,,2,2,FM,4.3;4.3;0.0;0.0;0.0;0.0;0.0;0.0;0.0,,,,,0.0,0.071350419872844
mp-1215723,Zr(AlFe)6,Zr1 Al6 Fe6,,-0.35049033115384504,Orthorhombic,Immm,Al;Fe;Zr,177.87702657179597,12.0045272,,6,2,FM,0.0;0.0;0.0;0.0;0.0;0.0;0.0;2.2;2.2;2.2;2.2;2.2;2.2,,,,,0.0,0.067487788790727
mp-553981,RbMnF4,Rb1 Mn1 F4,,-2.996978435955458,Monoclinic,P2_1/c,F;Mn;Rb,364.0201510272656,16.0000015,,4,2,FM,0.0;0.0;0.0;0.0;3.8;3.8;3.8;3.8;0.0;0.0;0.0;0.0;0.0;0.0;0.0;0.0;0.0;0.0;0.0;0.0;0.0;0.0;0.0;0.0,,,,,0.0,0.04395361480634501
mp-1218769,Sr2MnRuO6,Sr2 Mn1 Ru1 O6,,-2.359067221793104,Tetragonal,I4/m,Mn;O;Ru;Sr,126.37900178153689,6.9597033,,4,4,FM,0.0;0.0;3.8;1.9;0.0;0.0;0.0;0.0;0.2;0.2,,,,,0.0,0.05507009235625
mp-3202426,TcNiF6,Tc1 Ni1 F6,,-2.363605086249999,Trigonal,R-3,F;Ni;Tc,99.96137004478973,4.9999978,,2,2,FM,2.6;1.8;0.0;0.0;0.0;0.0;0.0;0.0,,,,,0.0,0.050019300433353
mp-28226,MnCr2O4,Mn1 Cr2 O4,,-2.357093347068964,Cubic,Fd-3m,Cr;Mn;O,151.07905148966802,22.0000002,,6,2,FM,4.5;4.5;3.0;3.0;3.0;3.0;0.0;0.0;0.0;0.0;0.0;0.0;0.0;0.0,,,,,0.0,0.14561913106467
mp-3202517,Mn2GaSnRh4,Mn2 Ga1 Sn1 Rh4,,-0.682880366120691,Trigonal,R-3m,Ga;Mn;Rh;Sn,116.15570312916036,9.185684,,6,3,FM,3.9;3.9;0.0;0.0;0.4;0.30000000000000004;0.4;0.30000000000000004,,,,,0.0,0.079080783401447
mp-3203284,Mn3GaF10,Mn3 Ga1 F10,,-2.888439088103448,Triclinic,P-1,F;Ga;Mn,180.96022858228892,14.0000337,,3,2,FM,4.5;4.5;4.0;0.0;0.0;0.0;0.0;0.0;0.0;0.0;0.0;0.0;0.0;0.0,,,,,0.0,0.077365252076003
mp-3205562,SrMn4Al2O12,Sr1 Mn4 Al2 O12,,-2.600044938838476,Monoclinic,C2/m,Al;Mn;O;Sr,391.6619994089944,23.9980828,,8,2,FM,0.0;0.0;2.8;2.8;2.8;2.8;2.8;2.8;2.8;2.8;0.0;0.0;0.0;0.0;0.0;0.0;0.0;0.0;0.0;0.0;0.0;0.0;0.0;0.0;0.0;0.0;0.0;0.0;0.0;0.0;0.0;0.0;0.0;0.0;0.0;0.0;0.0;0.0,,,,,0.0,0.06127243091291001
mp-771712,Li2Fe3SbO8,Li2 Fe3 Sb1 O8,,-1.9291776447619051,Hexagonal,P6_3mc,Fe;Li;O;Sb,305.5233444620702,30.0007505,,10,5,FM,0.0;0.0;0.0;0.0;4.3;4.3;4.3;4.3;4.3;4.3;0.0;0.0;0.0;0.0;0.30000000000000004;0.30000000000000004;0.30000000000000004;0.0;0.0;0.0;0.0;0.0;0.0;0.0;0.30000000000000004;0.0;0.0;0.0,,,,,0.0,0.09819462585689401
mp-1211902,LaGa4Fe9C,La1 Ga4 Fe9 C1,,-0.223607030333333,Tetragonal,I4/mcm,C;Fe;Ga;La,404.2397741228737,30.7287254,,18,3,FM,0.0;0.0;0.0;0.0;0.0;0.0;0.0;0.0;0.0;0.0;1.5;1.5;1.5;1.5;1.5;1.5;1.5;1.5;2.2;2.2;2.2;2.2;2.2;2.2;2.2;2.2;1.7000000000000002;1.7000000000000002;0.0;0.0,,,,,0.0,0.076016085915038
mp-17367,Mn2SiSe4,Mn2 Si1 Se4,,-0.782549971102217,Orthorhombic,Pnma,Mn;Se;Si,650.6406013257246,39.9999846,,8,2,FM,4.5;4.5;4.5;4.5;4.5;4.5;4.5;4.5;0.0;0.0;0.0;0.0;0.0;0.0;0.0;0.0;0.0;0.0;0.0;0.0;0.0;0.0;0.0;0.0;0.0;0.0;0.0;0.0,,,,,0.0,0.06147784893610501
mp-3201321,CdFePdPt5,Cd1 Fe1 Pd1 Pt5,,-0.29603107375000004,Tetragonal,P4/mmm,Cd;Fe;Pd;Pt,123.05500884859387,4.8035841999999995,,6,3,FM,0.0;3.5;0.0;0.30000000000000004;0.2;0.2;0.2;0.2,,,,,0.0,0.039036072118854
mp-1189121,U3CrSb5,U3 Cr1 Sb5,,-0.345716481666662,Hexagonal,P6_3/mcm,Cr;Sb;U,435.9090820362386,21.0088453,,8,3,FM,2.3;2.3;2.3;2.3;2.3;2.3;3.1;3.1;0.0;0.0;0.0;0.0;0.0;0.0;0.0;0.0;0.0;0.0,,,,,0.0,0.04819547507902901
mp-23566,Mn3B7IO13,Mn3 B7 I1 O13,,-2.602058373873323,Orthorhombic,Pca2_1,B;I;Mn;O,974.9270862431952,60.0038123,,12,3,FM,4.6;4.6;4.6;4.6;4.6;4.6;4.6;4.6;4.6;4.6;4.6;4.6;0.0;0.0;0.0;0.0;0.0;0.0;0.0;0.0;0.0;0.0;0.0;0.0;0.0;0.0;0.0;0.0;0.0;0.0;0.0;0.0;0.0;0.0;0.0;0.0;0.0;0.0;0.0;0.0;0.0;0.0;0.0;0.0;0.0;0.0;0.0;0.0;0.0;0.0;0.0;0.0;0.0;0.0;0.0;0.0;0.0;0.0;0.0;0.0;0.0;0.0;0.0;0.0;0.0;0.0;0.0;0.0;0.0;0.0;0.0;0.0;0.0;0.0;0.0;0.0;0.0;0.0;0.0;0.0;0.0;0.0;0.0;0.0;0.0;0.0;0.0;0.0;0.0;0.0;0.0;0.0;0.0;0.0;0.0;0.0,,,,,0.0,0.061546974278066005
mp-570456,Eu(CoAs)2,Eu1 Co2 As2,,-0.6773436779999991,Tetragonal,I4/mmm,As;Co;Eu,84.33354498428935,8.7849506,,3,2,FM,6.7;0.9;0.9;0.0;0.0,,,,,0.0,0.10416911327084001
mp-1191370,EuIn2Ni9,Eu1 In2 Ni9,,-0.14431625236111,Tetragonal,P4/mbm,Eu;In;Ni,337.75098006172453,16.9931763,,20,4,FM,6.6;6.6;0.0;0.0;0.0;0.0;0.2;0.2;0.2;0.2;0.2;0.2;0.2;0.2;0.2;0.2;0.2;0.2;0.2;0.2;0.2;0.2;0.2;0.2,,,,,0.0,0.050312737203292004
mp-1199415,Mn2VHO5,Mn2 V1 H1 O5,,-2.09748632954023,Orthorhombic,Pnma,H;Mn;O;V,874.8774349296987,80.0008831,,24,5,FM,4.6;4.6;4.6;4.6;4.6;4.6;4.6;4.6;4.6;4.6;4.6;4.6;4.6;4.6;4.6;4.6;0.30000000000000004;0.30000000000000004;0.30000000000000004;0.30000000000000004;0.30000000000000004;0.30000000000000004;0.30000000000000004;0.30000000000000004;0.0;0.0;0.0;0.0;0.0;0.0;0.0;0.0;0.0;0.0;0.0;0.0;0.0;0.0;0.0;0.0;0.0;0.0;0.0;0.0;0.0;0.0;0.0;0.0;0.0;0.0;0.0;0.0;0.0;0.0;0.0;0.0;0.0;0.0;0.0;0.0;0.0;0.0;0.0;0.0;0.0;0.0;0.0;0.0;0.0;0.0;0.0;0.0,,,,,0.0,0.09144238942044301
mp-26967,LiCr4(PO4)3,Li1 Cr4 P3 O12,,-2.498655774988095,Orthorhombic,Pnma,Cr;Li;O;P,954.7788588393103,63.9981776,,16,2,FM,0.0;0.0;0.0;0.0;3.8;3.8;3.8;3.8;3.8;3.8;3.8;3.8;3.8;3.8;3.8;3.8;3.8;3.8;3.8;3.8;0.0;0.0;0.0;0.0;0.0;0.0;0.0;0.0;0.0;0.0;0.0;0.0;0.0;0.0;0.0;0.0;0.0;0.0;0.0;0.0;0.0;0.0;0.0;0.0;0.0;0.0;0.0;0.0;0.0;0.0;0.0;0.0;0.0;0.0;0.0;0.0;0.0;0.0;0.0;0.0;0.0;0.0;0.0;0.0;0.0;0.0;0.0;0.0;0.0;0.0;0.0;0.0;0.0;0.0;0.0;0.0;0.0;0.0;0.0;0.0,,,,,0.0,0.06702931993886001
mp-4922,MnAlNi2,Mn1 Al1 Ni2,,-0.536377161120688,Cubic,Fm-3m,Al;Mn;Ni,47.90772275035047,4.8484509,,3,2,FM,3.7;0.0;0.6000000000000001;0.6000000000000001,,,,,0.0,0.101203952549895
mp-568056,LaCo9Si4,La1 Co9 Si4,,-0.399143071428572,Tetragonal,I4/mcm,Co;La;Si,345.96930077149113,20.04867,,18,7,FM,0.0;0.0;1.6;0.8;0.8;0.8;0.8;0.8;1.6;1.6;0.8;1.6;0.8;1.6;1.6;1.6;1.6;1.2;0.8;1.2;0.0;0.0;0.0;0.0;0.0;0.0;0.0;0.0,,,,,0.0,0.057949274560756006
mp-573037,Tb2MnNiO6,Tb2 Mn1 Ni1 O6,,-2.850117359626436,Monoclinic,P2_1/c,Mn;Ni;O;Tb,225.46006935361137,9.9993354,,4,2,FM,0.0;0.0;0.0;0.0;3.2;3.2;1.7000000000000002;1.7000000000000002;0.0;0.0;0.0;0.0;0.0;0.0;0.0;0.0;0.0;0.0;0.0;0.0,,,,,0.0,0.044350804240714005
mp-7070,Mn3PtN,Mn3 Pt1 N1,,-0.691496796439653,Cubic,Pm-3m,Mn;N;Pt,62.99165019934082,11.0533758,,4,2,FM,3.6;3.6;3.6;0.2;0.0,,,,,0.0,0.17547366619259702
mp-1210177,NaMn3Ag(PO4)3,Na1 Mn3 Ag1 P3 O12,,-2.379142602788381,Monoclinic,C2/c,Ag;Mn;Na;O;P,473.97381141971954,28.0007355,,6,2,FM,0.0;0.0;4.7;4.7;4.4;4.4;4.4;4.4;0.0;0.0;0.0;0.0;0.0;0.0;0.0;0.0;0.0;0.0;0.0;0.0;0.0;0.0;0.0;0.0;0.0;0.0;0.0;0.0;0.0;0.0;0.0;0.0;0.0;0.0;0.0;0.0;0.0;0.0;0.0;0.0,,,,,0.0,0.059076545634721006
mp-1063914,VFeCoGe,V1 Fe1 Co1 Ge1,,-0.251280766249999,Cubic,F-43m,Co;Fe;Ge;V,47.72768578073282,1.9879805,,3,3,FM,0.1;0.8;1.1;0.0,,,,,0.0,0.04165256428172601
mp-1221696,MnFePd6,Mn1 Fe1 Pd6,,-0.28352498681034505,Tetragonal,P4/mmm,Fe;Mn;Pd,116.95765850260695,9.2596925,,8,5,FM,4.1;3.5;0.30000000000000004;0.2;0.30000000000000004;0.30000000000000004;0.30000000000000004;0.30000000000000004,,,,,0.0,0.079171322498676