ID,pretty_formula,compound,energy_cell,energy_atom,lattice_system,spacegroup,species,volume_cell,moment_cell,mag_field,mag_sites_MP,mag_sites,mag_type,magmom,comment1,icsd_ids,doi,comment2,e_above_hull,magnetization_norm_vol
mp-1190950,Sc2Mn12P7,Sc2 Mn12 P7,,-0.719513778936781,Hexagonal,P-6,Mn;P;Sc,258.31477987642967,19.0027096,,12,4,FM,0.0;0.0;1.3;1.3;1.3;1.0;1.0;1.0;1.7000000000000002;1.7000000000000002;1.7000000000000002;2.4;2.4;2.4;0.0;0.0;0.0;0.0;0.0;0.0;0.0,,,,,0.0,0.07356415923661101
mp-3203391,Na3MnCr3O8,Na3 Mn1 Cr3 O8,,-2.280218402298849,Trigonal,R-3m,Cr;Mn;Na;O,160.62345218348244,12.0000059,,4,2,FM,0.0;0.0;0.0;3.0;2.9;2.9;2.9;0.0;0.0;0.0;0.0;0.0;0.0;0.0;0.0,,,,,0.0,0.074708927848793
mp-1196132,Mn3P4H2(PbO8)2,Mn3 P4 H2 Pb2 O16,,-2.361025251846835,Monoclinic,P2_1/c,H;Mn;O;P;Pb,693.8853353745591,30.0056346,,6,2,FM,4.7;4.7;4.7;4.7;4.7;4.7;0.0;0.0;0.0;0.0;0.0;0.0;0.0;0.0;0.0;0.0;0.0;0.0;0.0;0.0;0.0;0.0;0.0;0.0;0.0;0.0;0.0;0.0;0.0;0.0;0.0;0.0;0.0;0.0;0.0;0.0;0.0;0.0;0.0;0.0;0.0;0.0;0.0;0.0;0.0;0.0;0.0;0.0;0.0;0.0;0.0;0.0;0.0;0.0,,,,,0.0,0.04324292944424701
mp-561377,K4Mn3F12,K4 Mn3 F12,,-3.016414671234119,Tetragonal,I4_1/amd,F;K;Mn,560.6932656987487,26.0000012,,6,4,FM,0.0;0.0;0.0;0.0;0.0;0.0;0.0;0.0;4.5;4.5;3.8;3.8;3.8;3.8;0.0;0.0;0.0;0.0;0.0;0.0;0.0;0.0;0.0;0.0;0.0;0.0;0.0;0.0;0.0;0.0;0.0;0.0;0.0;0.0;0.0;0.0;0.0;0.0,,,,,0.0,0.046371167250596
mp-18924,Sr3(FeO3)2,Sr3 Fe2 O6,,-2.4765898175,Tetragonal,I4/mmm,Fe;O;Sr,151.49344793192236,9.441353,,8,3,FM,0.0;0.0;0.0;3.9;3.9;0.2;0.2;0.2;0.2;0.2;0.2,,,,,0.0,0.062321857010230006
mp-582367,EuNi5P3,Eu1 Ni5 P3,,-0.7952751609920641,Orthorhombic,Cmcm,Eu;Ni;P,237.17376239831464,14.096842,,4,4,FM,6.7;6.7;0.0;0.0;0.0;0.0;0.0;0.0;0.0;0.1;0.1;0.0;0.0;0.0;0.0;0.0;0.0;0.0,,,,,0.0,0.05943676845807801
mp-17489,Co7(AsO6)2,Co7 As2 O12,,-1.4648406442857151,Orthorhombic,Imma,As;Co;O,464.12644909567354,41.9983896,,18,9,FM,2.7;2.7;2.7;2.7;2.7;2.7;2.7;2.7;2.8;2.7;2.7;2.7;2.7;2.8;0.0;0.0;0.0;0.0;0.0;0.0;0.0;0.0;0.0;0.0;0.0;0.0;0.0;0.2;0.2;0.0;0.0;0.0;0.0;0.0;0.0;0.0;0.0;0.0;0.2;0.0;0.0;0.2,,,,,0.0,0.09048911063317201
mp-1209751,Pr2MnNiO6,Pr2 Mn1 Ni1 O6,,-2.760933286626437,Monoclinic,P2_1/c,Mn;Ni;O;Pr,238.09559662197654,10.0002332,,4,2,FM,0.0;0.0;0.0;0.0;3.2;3.2;1.7000000000000002;1.7000000000000002;0.0;0.0;0.0;0.0;0.0;0.0;0.0;0.0;0.0;0.0;0.0;0.0,,,,,0.0,0.042000916194503
mp-20949,MnSiNi,Mn1 Si1 Ni1,,-0.5732822223275871,Orthorhombic,Pnma,Mn;Ni;Si,143.63236102201853,12.2368674,,8,4,FM,3.2;3.2;3.2;3.2;0.0;0.0;0.0;0.0;0.1;0.1;0.1;0.1,,,,,0.0,0.085195754723575
mp-19407,MnWO4,Mn1 W1 O4,,-2.312458099080461,Monoclinic,P2/c,Mn;O;W,137.541915912545,9.9999998,,4,2,FM,4.5;4.5;0.2;0.2;0.0;0.0;0.0;0.0;0.0;0.0;0.0;0.0,,,,,0.0,0.072705107629578
mp-3215720,Sc2FeCo(BRh2)2,Sc2 Fe1 Co1 B2 Rh4,,-0.7547870184999991,Tetragonal,P4/mbm,B;Co;Fe;Rh;Sc,253.34205603124855,10.3045716,,12,3,FM,0.0;0.0;0.0;0.0;3.4;3.4;1.0;1.0;0.0;0.0;0.0;0.0;0.30000000000000004;0.30000000000000004;0.30000000000000004;0.30000000000000004;0.30000000000000004;0.30000000000000004;0.30000000000000004;0.30000000000000004,,,,,0.0,0.040674540032662
mp-3214466,CsMn3NiO8,Cs1 Mn3 Ni1 O8,,-1.89628043718833,Monoclinic,C2/m,Cs;Mn;Ni;O,201.69825709101323,10.0005659,,4,3,FM,0.0;2.9;2.9;2.9;0.9;0.0;0.0;0.0;0.0;0.0;0.0;0.0;0.0,,,,,0.0,0.049581816145726
mp-1226272,CrNiPO5,Cr1 Ni1 P1 O5,,-2.164173115215773,Monoclinic,C2/c,Cr;Ni;O;P,169.7691070355607,9.9999993,,4,2,FM,2.8;2.8;1.7000000000000002;1.7000000000000002;0.0;0.0;0.0;0.0;0.0;0.0;0.0;0.0;0.0;0.0;0.0;0.0,,,,,0.0,0.058903527706635005
mp-1200195,ScMnGe2,Sc1 Mn1 Ge2,,-0.579327103412358,Orthorhombic,Pbam,Ge;Mn;Sc,809.3276378450379,37.1382144,,12,2,FM,0.0;0.0;0.0;0.0;0.0;0.0;0.0;0.0;0.0;0.0;0.0;0.0;3.4;3.4;3.4;3.4;3.4;3.4;3.4;3.4;3.3;3.3;3.3;3.3;0.0;0.0;0.0;0.0;0.0;0.0;0.0;0.0;0.0;0.0;0.0;0.0;0.0;0.0;0.0;0.0;0.0;0.0;0.0;0.0;0.0;0.0;0.0;0.0,,,,,0.0,0.045887737750914
mp-19507,BaMn2V2O8,Ba1 Mn2 V2 O8,,-2.54981148872016,Tetragonal,I4_1/acd,Ba;Mn;O;V,727.4428301434161,40.0050322,,16,2,FM,0.0;0.0;0.0;0.0;4.6;4.6;4.6;4.6;4.6;4.6;4.6;4.6;0.2;0.2;0.2;0.2;0.2;0.2;0.2;0.2;0.0;0.0;0.0;0.0;0.0;0.0;0.0;0.0;0.0;0.0;0.0;0.0;0.0;0.0;0.0;0.0;0.0;0.0;0.0;0.0;0.0;0.0;0.0;0.0;0.0;0.0;0.0;0.0;0.0;0.0;0.0;0.0,,,,,0.0,0.054994056635506
mp-1226043,CsFeCoF6,Cs1 Fe1 Co1 F6,,-2.679922508850574,Orthorhombic,Imma,Co;Cs;F;Fe,294.3019356309492,15.9998452,,4,2,FM,0.0;0.0;4.5;4.5;2.8;2.8;0.0;0.0;0.0;0.0;0.0;0.0;0.0;0.0;0.0;0.0;0.0;0.0,,,,,0.0,0.054365409339555006
mp-1221996,Mn2CoO4,Mn2 Co1 O4,,-1.854206149852215,Tetragonal,I4_1/amd,Co;Mn;O,151.7646126556744,22.0000242,,6,4,FM,3.8;3.8;3.8;3.8;2.7;2.7;0.0;0.0;0.0;0.0;0.0;0.0;0.0;0.0,,,,,0.037702785238092,0.14496148881501
mp-20335,MnNbP,Mn1 Nb1 P1,,-0.836489889986315,Orthorhombic,Pnma,Mn;Nb;P,164.8038247048957,10.1718819,,4,2,FM,2.8;2.8;2.8;2.8;0.0;0.0;0.0;0.0;0.0;0.0;0.0;0.0,,,,,0.0,0.06172115191024301
mp-18708,Fe3P,Fe3 P1,,-0.253289225744046,Tetragonal,I-4,Fe;P,181.70916097825895,27.8501685,,12,12,FM,2.0;2.0;2.0;2.0;2.5;2.5;2.5;2.5;2.7;2.7;2.7;2.7;0.0;0.0;0.0;0.0,,,,,0.0,0.153267828380607
mp-1202942,Mn3P3PbO12,Mn3 P3 Pb1 O12,,-2.48736967330114,Orthorhombic,Imma,Mn;O;P;Pb,496.81946512818007,28.0008498,,6,2,FM,4.6;4.6;4.6;4.6;4.0;4.0;0.0;0.0;0.0;0.0;0.0;0.0;0.0;0.0;0.0;0.0;0.0;0.0;0.0;0.0;0.0;0.0;0.0;0.0;0.0;0.0;0.0;0.0;0.0;0.0;0.0;0.0;0.0;0.0;0.0;0.0;0.0;0.0,,,,,0.0,0.05636021083186701
mp-3200844,ScCrFeH6,Sc1 Cr1 Fe1 H6,,-0.310633998611111,Cubic,F-43m,Cr;Fe;H;Sc,64.99317161445386,5.0000333,,2,2,FM,0.0;3.8;0.7000000000000001;0.0;0.0;0.0;0.0;0.0;0.0,,,,,0.0,0.076931671063242
mp-1210122,NaMn4(AsO4)3,Na1 Mn4 As3 O12,,-1.9682708627801722,Monoclinic,C2/c,As;Mn;Na;O,518.996997383756,39.9996605,,8,3,FM,0.0;0.0;4.7;4.7;4.6;4.6;4.6;4.6;4.7;4.7;0.0;0.0;0.0;0.0;0.0;0.0;0.0;0.0;0.0;0.0;0.0;0.0;0.0;0.0;0.0;0.0;0.0;0.0;0.0;0.0;0.0;0.0;0.0;0.0;0.0;0.0;0.0;0.0;0.0;0.0,,,,,0.0,0.077071082687639
mp-554453,Cr2P2O7,Cr2 P2 O7,,-2.2742570492911263,Monoclinic,C2/c,Cr;O;P,779.7109712947744,47.9999997,,12,3,FM,3.7;3.7;3.7;3.7;3.7;3.7;3.7;3.7;3.7;3.7;3.7;3.7;0.0;0.0;0.0;0.0;0.0;0.0;0.0;0.0;0.0;0.0;0.0;0.0;0.0;0.0;0.0;0.0;0.0;0.0;0.0;0.0;0.0;0.0;0.0;0.0;0.0;0.0;0.0;0.0;0.0;0.0;0.0;0.0;0.0;0.0;0.0;0.0;0.0;0.0;0.0;0.0;0.0;0.0;0.0;0.0;0.0;0.0;0.0;0.0;0.0;0.0;0.0;0.0;0.0;0.0,,,,,0.077292041791819,0.061561272660165006
mp-1201132,SrMn3(PO4)3,Sr1 Mn3 P3 O12,,-2.720868041459035,Orthorhombic,Imma,Mn;O;P;Sr,492.6117095405365,28.000739,,6,2,FM,0.0;0.0;4.6;4.6;4.6;4.6;4.0;4.0;0.0;0.0;0.0;0.0;0.0;0.0;0.0;0.0;0.0;0.0;0.0;0.0;0.0;0.0;0.0;0.0;0.0;0.0;0.0;0.0;0.0;0.0;0.0;0.0;0.0;0.0;0.0;0.0;0.0;0.0,,,,,0.0,0.056841399539845
mp-22385,Np(Al2Fe)4,Np1 Al8 Fe4,,-0.32222857144230704,Tetragonal,I4/mmm,Al;Fe;Np,190.90308930937573,10.8172464,,5,2,FM,3.5;0.0;0.0;0.0;0.0;0.0;0.0;0.0;0.0;2.0;2.0;2.0;2.0,,,,,0.0,0.056663548186324006
mp-3212631,MnZnSnRh3,Mn1 Zn1 Sn1 Rh3,,-0.5716893974137941,Trigonal,P3m1,Mn;Rh;Sn;Zn,176.13929694367897,9.2900322,,6,8,FM,4.0;4.0;0.0;0.0;0.0;0.0;0.30000000000000004;0.0;0.30000000000000004;0.0;0.30000000000000004;0.30000000000000004,,,,,0.0,0.052742530265523
mp-4492,MnCo2Si,Mn1 Co2 Si1,,-0.5354404098706891,Cubic,Fm-3m,Co;Mn;Si,43.550563304037844,5.0000746,,3,2,FM,3.2;1.0;1.0;0.0,,,,,0.0,0.11481079050787801
mp-1190957,GdCrB4,Gd1 Cr1 B4,,-0.604908909999998,Orthorhombic,Pbam,B;Cr;Gd,237.82088340680014,30.6094376,,8,2,FM,6.9;6.9;6.9;6.9;0.8;0.8;0.8;0.8;0.0;0.0;0.0;0.0;0.0;0.0;0.0;0.0;0.0;0.0;0.0;0.0;0.0;0.0;0.0;0.0,,,,,0.0,0.128707946760258
mp-1216036,Zn3Co4(SbO6)2,Zn3 Co4 Sb2 O12,,-1.463419718095237,Triclinic,P-1,Co;O;Sb;Zn,469.3934615498833,21.9193006,,10,17,FM,0.0;0.0;0.0;0.0;0.0;0.0;2.7;2.7;2.6;2.7;2.6;2.6;2.6;1.0;0.0;0.0;0.0;0.0;0.0;0.0;0.0;0.0;0.0;0.0;0.2;0.0;0.0;0.0;0.0;0.0;0.0;0.0;0.0;0.0;0.0;0.0;0.0;0.2;0.0;0.0;0.0;0.0,,,,,0.037934692857140004,0.046697072702344
mp-1271793,Co3O4,Co3 O4,,-1.290338224285714,Trigonal,R-3m,Co;O,144.75003821314965,5.9998429,,6,5,FM,0.1;0.1;0.1;2.6;2.6;0.1;0.0;0.0;0.0;0.0;0.0;0.0;0.0;0.0,,,,,0.0,0.041449680940083
mp-3205314,Sr4Fe2RhWO12,Sr4 Fe2 Rh1 W1 O12,,-2.426577245749999,Triclinic,P-1,Fe;O;Rh;Sr;W,244.43381644790108,11.0008538,,7,8,FM,0.0;0.0;0.0;0.0;4.0;4.0;1.0;0.0;0.0;0.2;0.2;0.0;0.2;0.0;0.2;0.0;0.0;0.0;0.0;0.0,,,,,0.0,0.045005449572664
mp-18518,Rb2NaMn3F12,Rb2 Na1 Mn3 F12,,-2.9871290206082373,Triclinic,P-1,F;Mn;Na;Rb,533.5481034271942,24.0000007,,6,5,FM,0.0;0.0;0.0;0.0;0.0;0.0;3.7;3.7;3.7;3.8;3.8;3.7;0.0;0.0;0.0;0.0;0.0;0.0;0.0;0.0;0.0;0.0;0.0;0.0;0.0;0.0;0.0;0.0;0.0;0.0;0.0;0.0;0.0;0.0;0.0;0.0,,,,,0.0,0.044981887379672
mp-580234,Fe3RhN,Fe3 Rh1 N1,,-0.146633249749999,Cubic,Pm-3m,Fe;N;Rh,56.59814871105021,9.5591468,,4,2,FM,2.9;2.9;2.9;1.0;0.0,,,,,0.0,0.16889504370190903
mp-1191355,GdIn2Ni9,Gd1 In2 Ni9,,-0.19136713499999702,Tetragonal,P4/mbm,Gd;In;Ni,321.8897436713991,20.5443416,,20,4,FM,6.9;6.9;-0.0;-0.0;-0.0;-0.0;0.4;0.4;0.5;0.5;0.5;0.5;0.5;0.5;0.5;0.5;0.30000000000000004;0.30000000000000004;0.30000000000000004;0.30000000000000004;0.30000000000000004;0.30000000000000004;0.30000000000000004;0.30000000000000004,,,,,0.016943018333325,0.06382415719642301
mp-1104438,Hf(GaFe)6,Hf1 Ga6 Fe6,,-0.28559724576923,Orthorhombic,Immm,Fe;Ga;Hf,180.15924254580943,10.7399155,,6,2,FM,0.0;0.0;0.0;0.0;0.0;0.0;0.0;1.9;1.9;1.9;1.9;1.9;1.9,,,,,0.0,0.059613458339608
mp-1189266,KCr3S5,K1 Cr3 S5,,-1.152667184756944,Monoclinic,C2/m,Cr;K;S,347.73859312884576,18.0000002,,6,4,FM,0.0;0.0;3.0;3.0;3.0;3.0;3.0;3.0;0.0;0.0;0.0;0.0;0.0;0.0;0.0;0.0;0.0;0.0,,,,,0.0,0.051763021291486
mp-1197081,NaMn2Si3BH2O11,Na1 Mn2 Si3 B1 H2 O11,,-2.6104455039454013,Triclinic,P-1,B;H;Mn;Na;O;Si,441.4304864988943,20.0006068,,4,2,FM,0.0;0.0;4.7;4.7;4.7;4.7;0.0;0.0;0.0;0.0;0.0;0.0;0.0;0.0;0.0;0.0;0.0;0.0;0.0;0.0;0.0;0.0;0.0;0.0;0.0;0.0;0.0;0.0;0.0;0.0;0.0;0.0;0.0;0.0;0.0;0.0;0.0;0.0;0.0;0.0,,,,,0.0,0.045308621429005005
mp-3215034,BaYCr4N7,Ba1 Y1 Cr4 N7,,-0.9706994900961551,Hexagonal,P6_3mc,Ba;Cr;N;Y,346.2606002686508,15.9989344,,8,2,FM,0.0;0.0;0.0;0.0;2.2;2.2;2.2;2.2;2.2;2.2;2.1;2.1;0.0;0.0;0.0;0.0;0.0;0.0;0.0;0.0;0.0;0.0;0.0;0.0;0.0;0.0,,,,,0.0,0.046204894196992
mp-551131,Co2AsClO4,Co2 As1 Cl1 O4,,-1.4933836296875,Monoclinic,P2_1/m,As;Cl;Co;O,233.25360786271483,11.9989665,,4,2,FM,2.7;2.7;2.7;2.7;0.0;0.0;0.0;0.0;0.0;0.0;0.0;0.0;0.0;0.0;0.0;0.0,,,,,0.0,0.051441718779596
mp-10049,MnAsRu,Mn1 As1 Ru1,,-0.206449855143677,Hexagonal,P-62m,As;Mn;Ru,134.10895413258146,12.0439689,,6,2,FM,3.6;3.6;3.6;0.0;0.0;0.0;0.30000000000000004;0.30000000000000004;0.30000000000000004,,,,,0.0,0.08980734342386401
mp-18899,Nd2MnNiO6,Nd2 Mn1 Ni1 O6,,-2.780404253293103,Monoclinic,P2_1/c,Mn;Nd;Ni;O,236.20267546413152,10.0004377,,4,2,FM,0.0;0.0;0.0;0.0;3.2;3.2;1.7000000000000002;1.7000000000000002;0.0;0.0;0.0;0.0;0.0;0.0;0.0;0.0;0.0;0.0;0.0;0.0,,,,,0.0,0.042338376059244
mp-690617,LiMn3Al2(HO2)6,Li1 Mn3 Al2 H6 O12,,-2.048751003942768,Monoclinic,C2/m,Al;H;Li;Mn;O,218.0985213114585,10.0013177,,3,2,FM,0.0;3.9;3.2;3.2;0.0;0.0;0.0;0.0;0.0;0.0;0.0;0.0;0.0;0.0;0.0;0.0;0.0;0.0;0.0;0.0;0.0;0.0;0.0;0.0,,,,,0.0,0.045856879908495005
mp-1218794,Sr2Pr(FeO3)3,Sr2 Pr1 Fe3 O9,,-2.4067169184444452,Monoclinic,C2/m,Fe;O;Pr;Sr,360.0248841491674,26.0042468,,6,4,FM,0.0;0.0;0.0;0.0;0.0;0.0;4.1;4.1;4.1;4.1;4.1;4.1;0.0;0.0;0.0;0.0;0.0;0.0;0.0;0.0;0.0;0.0;0.0;0.0;0.0;0.0;0.0;0.0;0.0;0.0,,,,,0.0,0.07222902622815801
mp-1206085,MnCuF6,Mn1 Cu1 F6,,-2.326492990560345,Triclinic,P-1,Cu;F;Mn,91.45466047445505,3.9999987,,2,2,FM,2.8;0.8;0.0;0.0;0.0;0.0;0.0;0.0,,,,,0.0,0.043737505330494
mp-1210483,Na2CoNiF7,Na2 Co1 Ni1 F7,,-2.521602485705329,Orthorhombic,Imma,Co;F;Na;Ni,282.09693884740193,12.0000001,,4,2,FM,0.0;0.0;0.0;0.0;3.3;3.3;1.9;1.9;0.0;0.0;0.0;0.0;0.0;0.0;0.0;0.0;0.0;0.0;0.0;0.0;0.0;0.0,,,,,0.0,0.042538569007625
mp-3200925,LiMnPdPt,Li1 Mn1 Pd1 Pt1,,-0.624672842787358,Cubic,F-43m,Li;Mn;Pd;Pt,56.178321351525796,4.5392679000000005,,3,3,FM,0.0;4.0;0.2;0.2,,,,,0.0,0.080801059746807
mp-1078058,Ti(CrS2)2,Ti1 Cr2 S4,,-1.199086988273807,Monoclinic,C2/m,Cr;S;Ti,123.0033485858441,7.9422869,,3,2,FM,1.2;3.3;3.3;0.0;0.0;0.0;0.0,,,,,0.0,0.064569680348637
mp-3201431,Cs2Mn2BeS4,Cs2 Mn2 Be1 S4,,-1.282334631412835,Orthorhombic,C222,Be;Cs;Mn;S,234.97393870154306,10.0000018,,2,2,FM,0.0;0.0;4.4;4.4;0.0;0.0;0.0;0.0;0.0,,,,,0.0,0.042557918785630006
mp-3210876,RbBaFeO3,Rb1 Ba1 Fe1 O3,,-2.110799070000001,Orthorhombic,Cmce,Ba;Fe;O;Rb,447.2749280721618,19.9998692,,16,4,FM,0.0;0.0;0.0;0.0;0.0;0.0;0.0;0.0;3.9;3.9;3.9;3.9;0.30000000000000004;0.30000000000000004;0.30000000000000004;0.30000000000000004;0.2;0.2;0.2;0.30000000000000004;0.30000000000000004;0.30000000000000004;0.30000000000000004;0.2,,,,,0.0,0.044714934696212
mp-558631,Mn3(PO4)2,Mn3 P2 O8,,-2.37302534880005,Monoclinic,P2_1/c,Mn;O;P,310.7749492482777,30.0000008,,6,2,FM,4.6;4.6;4.6;4.6;4.6;4.6;0.0;0.0;0.0;0.0;0.0;0.0;0.0;0.0;0.0;0.0;0.0;0.0;0.0;0.0;0.0;0.0;0.0;0.0;0.0;0.0,,,,,0.0,0.096532879733601
mp-1095664,FeCoP,Fe1 Co1 P1,,-0.541401837380951,Orthorhombic,Pnma,Co;Fe;P,131.45058821219024,8.0725075,,8,2,FM,1.8;1.8;1.8;1.8;0.30000000000000004;0.30000000000000004;0.30000000000000004;0.30000000000000004;0.0;0.0;0.0;0.0,,,,,0.0,0.061410965213553007
mp-1228552,Ba5SrLa2Fe4O15,Ba5 Sr1 La2 Fe4 O15,,-2.727748692407406,Monoclinic,Cc,Ba;Fe;La;O;Sr,887.1691588215223,39.9959962,,8,4,FM,0.0;0.0;0.0;0.0;0.0;0.0;0.0;0.0;0.0;0.0;0.0;0.0;0.0;0.0;0.0;0.0;4.3;4.3;4.2;4.2;4.2;4.2;4.2;4.2;0.0;0.0;0.0;0.0;0.0;0.0;0.0;0.0;0.0;0.0;0.0;0.0;0.0;0.0;0.0;0.0;0.0;0.0;0.0;0.0;0.0;0.0;0.0;0.0;0.0;0.0;0.0;0.0;0.0;0.0,,,,,0.0,0.045082717092114005
mp-949,CoPt,Co1 Pt1,,-0.14867077749999402,Tetragonal,P4/mmm,Co;Pt,53.42636459425499,4.8160375,,2,2,FM,2.1;0.30000000000000004,,,,,0.0,0.09014346262515201
mp-1220065,Rb3(Cr5Se8)4,Rb3 Cr20 Se32,,-0.901887938318181,Triclinic,P-1,Cr;Rb;Se,1233.8061798571593,58.9963733,,20,10,FM,0.0;0.0;0.0;2.9;2.9;2.9;3.0;2.9;2.9;3.0;2.9;2.9;2.9;2.9;2.9;3.0;3.0;3.0;3.0;3.0;3.0;3.0;3.0;0.0;0.0;0.0;0.0;0.0;0.0;0.0;0.0;0.0;0.0;0.0;0.0;0.0;0.0;0.0;0.0;0.0;0.0;0.0;0.0;0.0;0.0;0.0;0.0;0.0;0.0;0.0;0.0;0.0;0.0;0.0;0.0,,,,,0.0,0.047816564921753006
mp-1324016,Ca3Fe2O7,Ca3 Fe2 O7,,-2.445437746354167,Orthorhombic,Cmc2_1,Ca;Fe;O,271.4034244231492,15.7560416,,4,2,FM,0.0;0.0;0.0;0.0;0.0;0.0;3.4;3.4;3.4;3.4;0.0;0.0;0.0;0.0;0.0;0.0;0.0;0.0;0.0;0.0;0.0;0.0;0.0;0.0,,,,,0.0,0.05805395283235001
mp-21130,Np(CoSi)2,Np1 Co2 Si2,,-0.6143430297500001,Tetragonal,I4/mmm,Co;Np;Si,72.68910452661845,3.935116599999999,,3,2,FM,3.5;0.2;0.2;0.0;0.0,,,,,0.0,0.054136264652413
mp-867840,BeFeRh2,Be1 Fe1 Rh2,,-0.43479624312499904,Cubic,Fm-3m,Be;Fe;Rh,48.37318646515999,4.1952038,,3,2,FM,0.0;3.3;0.5;0.5,,,,,0.0,0.086725810445039
mp-9374,MnMoN2,Mn1 Mo1 N2,,-0.6275657517456881,Hexagonal,P6_3/mmc,Mn;Mo;N,82.33728401931245,9.9783953,,4,3,FM,4.3;4.3;0.30000000000000004;0.30000000000000004;0.0;0.0;0.0;0.0,,,,,0.0,0.12118926946460201
mp-1196057,BaMn2Si2O7,Ba1 Mn2 Si2 O7,,-2.9346034744468383,Monoclinic,C2/c,Ba;Mn;O;Si,693.869501518146,40.004009,,8,3,FM,0.0;0.0;0.0;0.0;4.6;4.6;4.6;4.6;4.6;4.6;4.6;4.6;0.0;0.0;0.0;0.0;0.0;0.0;0.0;0.0;0.0;0.0;0.0;0.0;0.0;0.0;0.0;0.0;0.0;0.0;0.0;0.0;0.0;0.0;0.0;0.0;0.0;0.0;0.0;0.0;0.0;0.0;0.0;0.0;0.0;0.0;0.0;0.0,,,,,0.0,0.057653505324089006
mp-1804,Fe3N,Fe3 N1,,-0.009734129687499002,Hexagonal,P6_322,Fe;N,81.61142696835876,14.6286057,,6,2,FM,2.5;2.5;2.5;2.5;2.5;2.5;0.0;0.0,,,,,0.045550982499998005,0.17924702757215102
mp-674490,FeSbO4,Fe1 Sb1 O4,,-1.630427487499998,Orthorhombic,Cmmm,Fe;O;Sb,66.65611286382992,4.9999842,,3,3,FM,4.2;0.0;0.2;0.2;0.0;0.0,,,,,0.0,0.075011637870548
mp-20171,Pu(SiNi)2,Pu1 Si2 Ni2,,-0.7430727557500001,Tetragonal,I4/mmm,Ni;Pu;Si,74.75386927192858,5.1389892,,3,2,FM,4.9;-0.0;-0.0;0.1;0.1,,,,,0.0,0.06874546093803001
mp-1398496,CaCoF6,Ca1 Co1 F6,,-2.67377221125,Trigonal,R-3,Ca;Co;F,112.71773403420669,5.0000001,,7,2,FM,0.0;3.5;0.2;0.2;0.2;0.2;0.2;0.2,,,,,0.0,0.044358593107297006
mp-3205182,LiMnH6Ir,Li1 Mn1 H6 Ir1,,-0.35420005790549103,Cubic,P-43m,H;Ir;Li;Mn,293.00200383824836,20.0000094,,4,2,FM,0.0;0.0;0.0;0.0;4.5;4.5;4.5;4.5;0.0;0.0;0.0;0.0;0.0;0.0;0.0;0.0;0.0;0.0;0.0;0.0;0.0;0.0;0.0;0.0;0.0;0.0;0.0;0.0;0.0;0.0;0.0;0.0;0.0;0.0;0.0;0.0,,,,,0.0,0.06825895092185401
mp-1214638,Ba3FeRu2O9,Ba3 Fe1 Ru2 O9,,-2.242693849999999,Hexagonal,P6_3/mmc,Ba;Fe;O;Ru,413.6959525228812,16.0076931,,6,2,FM,0.0;0.0;0.0;0.0;0.0;0.0;4.2;4.2;1.0;1.0;1.0;1.0;0.0;0.0;0.0;0.0;0.0;0.0;0.0;0.0;0.0;0.0;0.0;0.0;0.0;0.0;0.0;0.0;0.0;0.0,,,,,0.0,0.038694343037147
mp-19009,NiO,Ni1 O1,,-1.101147339375,Cubic,Fm-3m,Ni;O,18.34183362776642,2.0000001,,2,2,FM,1.7000000000000002;0.30000000000000004,,,,,0.0,0.109040357719325
mp-690539,CrNiF6,Cr1 Ni1 F6,,-2.51894137875,Trigonal,R-3,Cr;F;Ni,90.14645863714668,4.0000001,,2,2,FM,2.4;1.6;0.0;0.0;0.0;0.0;0.0;0.0,,,,,0.0,0.04437223780582
mp-5056,Mn2SiS4,Mn2 Si1 S4,,-0.9834398043165011,Orthorhombic,Pnma,Mn;S;Si,559.7138450819633,40.0000037,,8,2,FM,4.5;4.5;4.5;4.5;4.5;4.5;4.5;4.5;0.0;0.0;0.0;0.0;0.0;0.0;0.0;0.0;0.0;0.0;0.0;0.0;0.0;0.0;0.0;0.0;0.0;0.0;0.0;0.0,,,,,0.0,0.071465096051255
mp-1218109,SrPrFeCoO6,Sr1 Pr1 Fe1 Co1 O6,,-2.385984028166666,Triclinic,P1,Co;Fe;O;Pr;Sr,115.35660940459427,5.9992776,,2,2,FM,0.0;0.0;4.2;1.4;0.0;0.0;0.0;0.0;0.0;0.0,,,,,0.0,0.052006362105863006
mp-1183837,Co3Ni,Co3 Ni1,,-0.023213681249998,Hexagonal,P6_3/mmc,Co;Ni,84.7416530296993,12.1604263,,8,2,FM,1.9;1.9;1.9;1.9;1.9;1.9;0.7000000000000001;0.7000000000000001,,,,,0.0,0.143499989264289
mp-3201886,FePd7Pt,Fe1 Pd7 Pt1,,-0.12009641111110701,Orthorhombic,Fmm2,Fe;Pd;Pt,133.02165479031697,6.1443349,,9,6,FM,3.5;0.30000000000000004;0.30000000000000004;0.30000000000000004;0.30000000000000004;0.30000000000000004;0.30000000000000004;0.30000000000000004;0.4,,,,,0.0,0.046190486125626005
mp-15539,CaMn2Be3(SiO4)3,Ca1 Mn2 Be3 Si3 O12,,-3.04316790158867,Monoclinic,P2_1/c,Be;Ca;Mn;O;Si,892.3742659174712,40.0031483,,8,2,FM,0.0;0.0;0.0;0.0;4.7;4.7;4.7;4.7;4.7;4.7;4.7;4.7;0.0;0.0;0.0;0.0;0.0;0.0;0.0;0.0;0.0;0.0;0.0;0.0;0.0;0.0;0.0;0.0;0.0;0.0;0.0;0.0;0.0;0.0;0.0;0.0;0.0;0.0;0.0;0.0;0.0;0.0;0.0;0.0;0.0;0.0;0.0;0.0;0.0;0.0;0.0;0.0;0.0;0.0;0.0;0.0;0.0;0.0;0.0;0.0;0.0;0.0;0.0;0.0;0.0;0.0;0.0;0.0;0.0;0.0;0.0;0.0;0.0;0.0;0.0;0.0;0.0;0.0;0.0;0.0;0.0;0.0;0.0;0.0,,,,,0.0,0.044827769947928
mp-3203145,Cr2CuPt5,Cr2 Cu1 Pt5,,-0.348474437500001,Tetragonal,I4/mmm,Cr;Cu;Pt,115.3543280749321,6.0625617,,3,2,FM,3.2;3.2;0.1;0.0;0.0;0.0;0.0;0.0,,,,,0.0,0.05255599682451301
mp-21845,FePd3,Fe1 Pd3,,-0.1501705525,Cubic,Pm-3m,Fe;Pd,57.717612463891925,4.4457367,,4,2,FM,3.5;0.30000000000000004;0.30000000000000004;0.30000000000000004,,,,,0.0,0.077025651447056
mp-558702,CsMnF3,Cs1 Mn1 F3,,-2.991692221563219,Hexagonal,P6_3/mmc,Cs;F;Mn,505.0130043739792,30.0000033,,6,2,FM,0.0;0.0;0.0;0.0;0.0;0.0;4.6;4.6;4.6;4.6;4.6;4.6;0.0;0.0;0.0;0.0;0.0;0.0;0.0;0.0;0.0;0.0;0.0;0.0;0.0;0.0;0.0;0.0;0.0;0.0,,,,,0.0,0.059404417391564004
mp-2898735,SrEu2Fe2O7,Sr1 Eu2 Fe2 O7,,-2.5513991584375,Orthorhombic,Cmcm,Eu;Fe;O;Sr,294.17679951751336,43.257991,,4,2,FM,6.4;6.4;3.7;3.7;0.0;0.0;0.0;0.0;0.0;0.0;0.0;0.0,,,,,0.0,0.147047595428832
mp-21064,EuNi2B2C,Eu1 Ni2 B2 C1,,-0.356697278055555,Tetragonal,I4/mmm,B;C;Eu;Ni,67.53787411205873,6.8063293,,3,2,FM,6.6;0.1;0.1;0.0;0.0;0.0,,,,,0.0,0.10077796183970701
mp-3202097,Cr2CuPd2Pt3,Cr2 Cu1 Pd2 Pt3,,-0.26699443875,Monoclinic,C2/m,Cr;Cu;Pd;Pt,115.23409527891866,6.1994546,,3,2,FM,3.3;3.3;0.1;0.0;0.0;0.0;0.0;0.0,,,,,0.0,0.053798787459514004
mp-1192940,Gd3Ni7B2,Gd3 Ni7 B2,,-0.47598960152777603,Hexagonal,P6_3/mmc,B;Gd;Ni,325.26571264645014,42.4913912,,6,2,FM,7.0;7.0;7.0;7.0;7.0;7.0;-0.0;0.0;-0.0;-0.0;0.0;-0.0;-0.0;0.0;-0.0;-0.0;0.0;-0.0;0.0;0.0;0.0;0.0;0.0;0.0,,,,,0.0,0.130635937167426
mp-756507,LiFePHO5,Li1 Fe1 P1 H1 O5,,-2.239608244914022,Triclinic,P-1,Fe;H;Li;O;P,182.93962467272172,9.9996929,,2,2,FM,0.0;0.0;4.4;4.4;0.0;0.0;0.0;0.0;0.0;0.0;0.0;0.0;0.0;0.0;0.0;0.0;0.0;0.0,,,,,0.0,0.05466116440267801
mp-1212604,GdAl3Ni2,Gd1 Al3 Ni2,,-0.6598754761111091,Hexagonal,P6/mmm,Al;Gd;Ni,284.9555685958942,21.7595272,,3,2,FM,7.0;7.0;7.1;-0.0;-0.0;-0.0;-0.0;-0.0;-0.0;-0.0;-0.0;-0.0;-0.0;-0.0;-0.0;-0.0;-0.0;-0.0,,,,,0.0,0.076361122918983
mp-541823,TlCr5S8,Tl1 Cr5 S8,,-0.9877875658928561,Monoclinic,C2/m,Cr;S;Tl,263.2528545888434,15.0000005,,5,3,FM,0.0;3.0;3.0;3.0;3.0;3.0;0.0;0.0;0.0;0.0;0.0;0.0;0.0;0.0,,,,,0.0,0.05697944101471301