ID,pretty_formula,compound,energy_cell,energy_atom,lattice_system,spacegroup,species,volume_cell,moment_cell,mag_field,mag_sites_MP,mag_sites,mag_type,magmom,comment1,icsd_ids,doi,comment2,e_above_hull,magnetization_norm_vol
mp-1207651,YMnFeO5,Y1 Mn1 Fe1 O5,,-2.507691700366379,Orthorhombic,Pbam,Fe;Mn;O;Y,368.6083594691474,32.0006618,,8,2,FM,0.0;0.0;0.0;0.0;3.2;3.2;3.2;3.2;4.3;4.3;4.3;4.3;0.0;0.0;0.0;0.0;0.0;0.0;0.0;0.0;0.0;0.0;0.0;0.0;0.0;0.0;0.0;0.0;0.0;0.0;0.0;0.0,,,,,0.0,0.08681480215501801
mp-1047495,Ca3Mn3(AsO4)4,Ca3 Mn3 As4 O16,,-2.324098579376658,Monoclinic,P2_1/c,As;Ca;Mn;O,766.7506814651324,29.9993657,,6,2,FM,0.0;0.0;0.0;0.0;0.0;0.0;4.6;4.6;4.6;4.6;4.6;4.6;0.0;0.0;0.0;0.0;0.0;0.0;0.0;0.0;0.0;0.0;0.0;0.0;0.0;0.0;0.0;0.0;0.0;0.0;0.0;0.0;0.0;0.0;0.0;0.0;0.0;0.0;0.0;0.0;0.0;0.0;0.0;0.0;0.0;0.0;0.0;0.0;0.0;0.0;0.0;0.0,,,,,0.0,0.039125319905391004
mp-922,CoPt3,Co1 Pt3,,-0.150056839999997,Cubic,Pm-3m,Co;Pt,58.13583289379899,2.8540454,,4,2,FM,2.3;0.2;0.2;0.2,,,,,0.0,0.049092706820141004
mp-3215882,ZrGa5Fe6Ge,Zr1 Ga5 Fe6 Ge1,,-0.27327379884615305,Orthorhombic,Imm2,Fe;Ga;Ge;Zr,181.581532825093,14.0975994,,6,6,FM,0.0;0.0;0.0;0.0;0.0;0.0;2.6;2.6;2.6;2.6;2.6;2.6;0.0,,,,,0.0,0.07763784775172801
mp-555569,Cr2S3,Cr2 S3,,-1.011826391687499,Trigonal,R-3,Cr;S,176.60390142171053,12.0,,4,3,FM,3.0;3.1;3.0;3.0;0.0;0.0;0.0;0.0;0.0;0.0,,,,,0.0,0.067948668763241
mp-19333,Fe2B2O5,Fe2 B2 O5,,-2.006425814861111,Triclinic,P-1,B;Fe;O,178.82770206935703,16.0000003,,4,2,FM,3.7;3.7;3.6;3.6;0.0;0.0;0.0;0.0;0.0;0.0;0.0;0.0;0.0;0.0;0.0;0.0;0.0;0.0,,,,,0.045706574417989004,0.08947159816321101
mp-562111,Co3(AsO4)2,Co3 As2 O8,,-1.3061046428846161,Monoclinic,P2_1/c,As;Co;O,577.3842654927694,35.9999746,,12,3,FM,2.7;2.7;2.7;2.7;2.7;2.7;2.7;2.7;2.7;2.7;2.7;2.7;0.0;0.0;0.0;0.0;0.0;0.0;0.0;0.0;0.0;0.0;0.0;0.0;0.0;0.0;0.0;0.0;0.0;0.0;0.0;0.0;0.0;0.0;0.0;0.0;0.0;0.0;0.0;0.0;0.0;0.0;0.0;0.0;0.0;0.0;0.0;0.0;0.0;0.0;0.0;0.0,,,,,0.037183985807685005,0.06235011369642301
mp-19080,Na2Mn3O7,Na2 Mn3 O7,,-2.100215703308189,Triclinic,P-1,Mn;Na;O,271.6524857617183,18.0000001,,6,3,FM,0.0;0.0;0.0;0.0;2.8;2.8;2.9;2.9;2.8;2.8;0.0;0.0;0.0;0.0;0.0;0.0;0.0;0.0;0.0;0.0;0.0;0.0;0.0;0.0,,,,,0.0,0.06626112788744601
mp-972320,UNiB4,U1 Ni1 B4,,-0.5362005875,Tetragonal,I4/mmm,B;Ni;U,239.8096979553497,9.4785783,,8,3,FM,2.0;2.0;2.0;2.0;0.30000000000000004;0.30000000000000004;0.30000000000000004;0.30000000000000004;-0.0;-0.0;-0.0;-0.0;-0.0;-0.0;-0.0;-0.0;-0.0;-0.0;-0.0;-0.0;-0.0;-0.0;-0.0;-0.0,,,,,0.0,0.039525416948587
mp-757573,MnVHPbO5,Mn1 V1 H1 Pb1 O5,,-2.007463560498083,Orthorhombic,Pnma,H;Mn;O;Pb;V,443.73658038098176,20.0000016,,8,2,FM,4.4;4.4;4.4;4.4;0.2;0.2;0.2;0.2;0.0;0.0;0.0;0.0;0.0;0.0;0.0;0.0;0.0;0.0;0.0;0.0;0.0;0.0;0.0;0.0;0.0;0.0;0.0;0.0;0.0;0.0;0.0;0.0;0.0;0.0;0.0;0.0,,,,,0.0,0.045071789174623005
mp-16838,EuNi5As3,Eu1 Ni5 As3,,-0.578335581944445,Orthorhombic,Cmcm,As;Eu;Ni,264.06746298174215,14.1449876,,4,7,FM,6.7;6.7;0.0;0.0;0.1;0.1;0.0;0.0;0.0;0.0;0.0;0.0;0.0;0.0;0.0;0.0;0.0;0.0,,,,,0.0,0.053565810192140004
mp-10068,Ce2MnN3,Ce2 Mn1 N3,,-1.520320355122126,Orthorhombic,Immm,Ce;Mn;N,82.75474698613252,3.9867536,,3,2,FM,0.5;0.5;3.0;0.0;0.0;0.0,,,,,0.0,0.048175527630675
mp-558116,KMnF4,K1 Mn1 F4,,-3.000990454288793,Monoclinic,P2_1/c,F;K;Mn,337.6040341264825,15.9999999,,4,2,FM,0.0;0.0;0.0;0.0;3.8;3.8;3.7;3.7;0.0;0.0;0.0;0.0;0.0;0.0;0.0;0.0;0.0;0.0;0.0;0.0;0.0;0.0;0.0;0.0,,,,,0.0,0.04739279831592701
mp-777049,LiFeBO3,Li1 Fe1 B1 O3,,-2.332140617916666,Monoclinic,Cc,B;Fe;Li;O,244.27003063209077,16.0000305,,4,4,FM,0.0;0.0;0.0;0.0;3.8;3.8;3.8;3.8;0.0;0.0;0.0;0.0;0.0;0.0;0.0;0.0;0.0;0.0;0.0;0.0;0.0;0.0;0.0;0.0,,,,,0.0,0.065501406204425
mp-1210977,LiMn2TeO6,Li1 Mn2 Te1 O6,,-1.9291509505862061,Triclinic,P1,Li;Mn;O;Te,231.9076162905286,17.9983878,,4,4,FM,0.0;0.0;4.0;4.6;4.6;3.9;0.0;0.0;0.0;0.0;0.0;0.0;0.0;0.0;0.0;0.0;0.0;0.0;0.0;0.0,,,,,0.0,0.07761016256340601
mp-3204613,Zn5Ga(FeRh2)6,Zn5 Ga1 Fe6 Rh12,,-0.433682718541665,Orthorhombic,Pmmm,Fe;Ga;Rh;Zn,319.46242008179047,26.5108928,,18,8,FM,0.0;0.0;0.0;0.0;0.0;0.0;3.4;3.4;3.4;3.4;3.4;3.4;0.6000000000000001;0.6000000000000001;0.6000000000000001;0.6000000000000001;0.6000000000000001;0.6000000000000001;0.7000000000000001;0.7000000000000001;0.6000000000000001;0.6000000000000001;0.6000000000000001;0.6000000000000001,,,,,0.0,0.08298595119016601
mp-1222033,Mn4Zn3(NiO6)2,Mn4 Zn3 Ni2 O12,,-1.7916456098440061,Monoclinic,C2/c,Mn;Ni;O;Zn,454.8133214866442,35.9964468,,12,4,FM,3.9;3.9;3.9;3.2;3.2;3.2;3.2;3.9;0.0;0.0;0.0;0.0;0.0;0.0;1.8;1.8;1.8;1.8;0.0;0.0;0.0;0.0;0.0;0.0;0.0;0.0;0.0;0.0;0.0;0.0;0.0;0.0;0.0;0.0;0.0;0.0;0.0;0.0;0.0;0.0;0.0;0.0,,,,,0.0,0.07914554191671101
mp-19346,Fe3(PO4)2,Fe3 P2 O8,,-1.9946912531501821,Monoclinic,P2_1/c,Fe;O;P,297.4272228794915,23.9999997,,6,2,FM,3.7;3.7;3.7;3.7;3.7;3.7;0.0;0.0;0.0;0.0;0.0;0.0;0.0;0.0;0.0;0.0;0.0;0.0;0.0;0.0;0.0;0.0;0.0;0.0;0.0;0.0,,,,,0.023040854109300003,0.080692007502366
mp-1192651,BaFeO3,Ba1 Fe1 O3,,-2.2084678689166672,Hexagonal,P6_3/mmc,Ba;Fe;O,377.7430168733332,20.0075123,,6,3,FM,0.0;0.0;0.0;0.0;0.0;0.0;3.8;3.8;2.4;2.4;2.4;2.4;0.0;0.0;0.0;0.0;0.0;0.0;0.0;0.0;0.0;0.0;0.0;0.0;0.0;0.0;0.0;0.0;0.0;0.0,,,,,0.0,0.052965935586597006
mp-31126,Na3CoO3,Na3 Co1 O3,,-1.524702762321429,Triclinic,P-1,Co;Na;O,187.80765940023784,8.0000002,,8,4,FM,0.0;0.0;0.0;0.0;0.0;0.0;2.9;2.9;0.30000000000000004;0.30000000000000004;0.30000000000000004;0.30000000000000004;0.30000000000000004;0.30000000000000004,,,,,0.0,0.042596772812929
mp-1201795,RbFe3P3(O4F3)2,Rb1 Fe3 P3 O8 F6,,-2.6306204876870742,Monoclinic,C2/c,F;Fe;O;P;Rb,603.4209509716294,24.0000007,,6,2,FM,0.0;0.0;3.8;3.8;3.8;3.8;3.8;3.8;0.0;0.0;0.0;0.0;0.0;0.0;0.0;0.0;0.0;0.0;0.0;0.0;0.0;0.0;0.0;0.0;0.0;0.0;0.0;0.0;0.0;0.0;0.0;0.0;0.0;0.0;0.0;0.0;0.0;0.0;0.0;0.0;0.0;0.0,,,,,0.0,0.039773230712913006
mp-1211101,NbNi11(BO5)4,Nb1 Ni11 B4 O20,,-1.8616179076851842,Monoclinic,C2/c,B;Nb;Ni;O,699.890884328936,41.9999407,,22,7,FM,0.0;0.0;1.8;1.8;1.8;1.8;1.8;1.8;1.8;1.8;1.8;1.8;1.8;1.8;1.7000000000000002;1.7000000000000002;1.7000000000000002;1.7000000000000002;1.8;1.8;1.7000000000000002;1.7000000000000002;1.7000000000000002;1.7000000000000002;0.0;0.0;0.0;0.0;0.0;0.0;0.0;0.0;0.0;0.0;0.0;0.0;0.0;0.0;0.0;0.0;0.0;0.0;0.0;0.0;0.0;0.0;0.0;0.0;0.0;0.0;0.0;0.0;0.0;0.0;0.0;0.0;0.0;0.0;0.0;0.0;0.0;0.0;0.0;0.0;0.0;0.0;0.0;0.0;0.0;0.0;0.0;0.0,,,,,0.0,0.060009269502445006
mp-1173284,Sr2FeMoO6,Sr2 Fe1 Mo1 O6,,-2.5325863264166673,Triclinic,P1,Fe;Mo;O;Sr,1543.365702749856,72.0029515,,26,96,FM,0.0;0.0;0.0;0.0;0.0;0.0;0.0;0.0;0.0;0.0;0.0;0.0;0.0;0.0;0.0;0.0;0.0;0.0;0.0;0.0;0.0;0.0;0.0;0.0;4.4;4.3;4.3;4.3;4.3;4.3;4.3;4.3;4.4;4.3;4.3;4.4;1.0;1.0;1.0;1.0;1.0;1.0;1.0;1.0;1.0;1.0;1.0;1.0;0.2;0.0;0.0;0.0;0.0;0.0;0.0;0.0;0.0;0.0;0.0;0.0;0.0;0.0;0.0;0.0;0.0;0.0;0.0;0.0;0.0;0.0;0.0;0.0;0.0;0.0;0.0;0.0;0.0;0.0;0.0;0.0;0.0;0.0;0.0;0.0;0.0;0.0;0.0;0.0;0.0;0.0;0.0;0.0;0.0;0.0;0.0;0.0;0.0;0.0;0.0;0.0;0.0;0.0;0.0;0.0;0.0;0.0;0.0;0.0;0.0;0.0;0.0;0.0;0.2;0.0;0.0;0.0;0.0;0.0;0.0;0.0,,,,,0.0,0.046653201747136004
mp-850230,Mn9Zn6Si4(SbO14)2,Mn9 Zn6 Si4 Sb2 O28,,-2.155877470925406,Triclinic,P-1,Mn;O;Sb;Si;Zn,561.588339910424,45.0000002,,9,5,FM,4.5;4.6;4.5;4.6;4.6;4.6;4.6;4.5;4.5;0.0;0.0;0.0;0.0;0.0;0.0;0.0;0.0;0.0;0.0;0.0;0.0;0.0;0.0;0.0;0.0;0.0;0.0;0.0;0.0;0.0;0.0;0.0;0.0;0.0;0.0;0.0;0.0;0.0;0.0;0.0;0.0;0.0;0.0;0.0;0.0;0.0;0.0;0.0;0.0,,,,,0.024691897517007,0.08012986916212901
mp-1205062,Mn2AsO5,Mn2 As1 O5,,-1.8339951390894402,Orthorhombic,Pnnm,As;Mn;O,440.7888230360276,36.0000014,,8,2,FM,4.1;4.1;4.1;4.1;4.3;4.3;4.3;4.3;0.0;0.0;0.0;0.0;0.0;0.0;0.0;0.0;0.0;0.0;0.0;0.0;0.0;0.0;0.0;0.0;0.0;0.0;0.0;0.0;0.0;0.0;0.0;0.0,,,,,0.0024789535937470002,0.081671765522642
mp-3206923,Mn2Al3CrS8,Mn2 Al3 Cr1 S8,,-1.208992757247535,Trigonal,R-3m,Al;Cr;Mn;S,259.11385184372796,12.9999804,,3,2,FM,4.3;4.3;0.0;0.0;0.0;3.1;0.0;0.0;0.0;0.0;0.0;0.0;0.0;0.0,,,,,0.0,0.05017092026342201
mp-616544,RbCr3S5,Rb1 Cr3 S5,,-1.14989871003472,Monoclinic,C2/m,Cr;Rb;S,354.9418605014718,18.0,,6,4,FM,0.0;0.0;3.0;3.0;3.0;3.0;3.0;3.0;0.0;0.0;0.0;0.0;0.0;0.0;0.0;0.0;0.0;0.0,,,,,0.0,0.050712530707336
mp-18785,CrWO4,Cr1 W1 O4,,-2.2859303375,Orthorhombic,Cmmm,Cr;O;W,63.46911087033851,3.211503,,2,2,FM,2.9;0.2;0.0;0.0;0.0;0.0,,,,,0.018382493749999,0.05059946414817101
mp-3201868,MnCrAgS4,Mn1 Cr1 Ag1 S4,,-0.7767984236761081,Orthorhombic,Imma,Ag;Cr;Mn;S,260.31522267600883,11.9999269,,4,2,FM,3.4;3.4;3.0;3.0;0.0;0.0;0.0;0.0;0.0;0.0;0.0;0.0;0.0;0.0,,,,,0.0,0.04609767641186
mp-570203,MnCoSb,Mn1 Co1 Sb1,,-0.24638995691091903,Cubic,Fm-3m,Co;Mn;Sb,397.4089446161462,35.8653329,,16,4,FM,3.9;3.3;3.9;4.0;3.9;3.9;3.9;3.9;0.7000000000000001;0.7000000000000001;0.7000000000000001;0.7000000000000001;0.7000000000000001;0.7000000000000001;0.7000000000000001;0.7000000000000001;0.0;0.0;0.0;0.0;0.0;0.0;0.0;0.0,,,,,0.0,0.090247925684314
mp-1104473,KCr5Se8,K1 Cr5 Se8,,-0.9103838475714271,Monoclinic,C2/m,Cr;K;Se,308.5380287672373,15.0037318,,5,3,FM,0.0;2.9;3.0;3.0;3.0;3.0;0.0;0.0;0.0;0.0;0.0;0.0;0.0;0.0,,,,,0.0,0.048628468457996
mp-559713,Fe3(P2O7)2,Fe3 P4 O14,,-2.176037834138322,Orthorhombic,Pnma,Fe;O;P,1111.5632684638563,56.000001,,12,2,FM,4.2;3.9;4.2;3.9;4.2;4.2;3.9;4.2;4.2;3.9;4.2;4.2;0.0;0.0;0.0;0.0;0.0;0.0;0.0;0.0;0.0;0.0;0.0;0.0;0.0;0.0;0.0;0.0;0.0;0.0;0.0;0.0;0.0;0.0;0.0;0.0;0.0;0.0;0.0;0.0;0.0;0.0;0.0;0.0;0.0;0.0;0.0;0.0;0.0;0.0;0.0;0.0;0.0;0.0;0.0;0.0;0.0;0.0;0.0;0.0;0.0;0.0;0.0;0.0;0.0;0.0;0.0;0.0;0.0;0.0;0.0;0.0;0.0;0.0;0.0;0.0;0.0;0.0;0.0;0.0;0.0;0.0;0.0;0.0,,,,,0.0,0.050379499385032
mp-865170,GaFeRh2,Ga1 Fe1 Rh2,,-0.5477225799999981,Cubic,Fm-3m,Fe;Ga;Rh,53.72574815883756,4.4276779,,3,2,FM,0.0;3.4;0.6000000000000001;0.6000000000000001,,,,,0.0,0.082412587106461
mp-767781,Sr16Mn8O29,Sr16 Mn8 O29,,-2.784161566973812,Triclinic,P1,Mn;O;Sr,734.0964939954681,29.9999998,,8,8,FM,0.0;0.0;0.0;0.0;0.0;0.0;0.0;0.0;0.0;0.0;0.0;0.0;0.0;0.0;0.0;0.0;3.5;3.5;3.6;3.6;3.0;3.0;3.5;3.5;0.0;0.0;0.0;0.0;0.0;0.0;0.0;0.0;0.0;0.0;0.0;0.0;0.0;0.0;0.0;0.0;0.0;0.0;0.0;0.0;0.0;0.0;0.0;0.0;0.0;0.0;0.0;0.0;0.0,,,,,0.0,0.040866561883055
mp-1197400,Mn7(PbO5)3,Mn7 Pb3 O15,,-1.834829869720689,Orthorhombic,Cmc2_1,Mn;O;Pb,1258.9494393404163,99.9980113,,28,8,FM,3.3;3.3;3.3;3.3;3.3;3.3;3.3;3.3;4.0;4.0;4.0;4.0;3.9;3.9;3.9;3.9;3.2;3.2;3.4;3.4;3.9;3.9;3.9;3.9;3.9;3.9;3.9;3.9;0.0;0.0;0.0;0.0;0.0;0.0;0.0;0.0;0.0;0.0;0.0;0.0;0.0;0.0;0.0;0.0;0.0;0.0;0.0;0.0;0.0;0.0;0.0;0.0;0.0;0.0;0.0;0.0;0.0;0.0;0.0;0.0;0.0;0.0;0.0;0.0;0.0;0.0;0.0;0.0;0.0;0.0;0.0;0.0;0.0;0.0;0.0;0.0;0.0;0.0;0.0;0.0;0.0;0.0;0.0;0.0;0.0;0.0;0.0;0.0;0.0;0.0;0.0;0.0;0.0;0.0;0.0;0.0;0.0;0.0;0.0;0.0,,,,,0.0,0.07942972781527301
mp-1104317,Lu(GaFe)6,Lu1 Ga6 Fe6,,-0.32173511628205004,Orthorhombic,Immm,Fe;Ga;Lu,185.12976834141978,11.0591692,,6,2,FM,0.0;0.0;0.0;0.0;0.0;0.0;0.0;2.0;2.0;1.9;1.9;1.9;1.9,,,,,0.0,0.059737390151131005
mp-1002109,VCo,V1 Co1,,-0.14904514000000102,Cubic,Pm-3m,Co;V,24.14828791747935,1.9552037,,2,2,FM,0.5;1.5,,,,,0.0,0.080966555752582
mp-22363,Ba3NiRu2O9,Ba3 Ni1 Ru2 O9,,-2.053178324249999,Hexagonal,P6_3/mmc,Ba;Ni;O;Ru,407.4741942143961,16.0001002,,18,6,FM,0.0;0.0;0.0;0.0;0.0;0.0;1.7000000000000002;1.7000000000000002;2.0;2.0;2.0;2.0;0.30000000000000004;0.30000000000000004;0.30000000000000004;0.30000000000000004;0.30000000000000004;0.30000000000000004;0.30000000000000004;0.30000000000000004;0.30000000000000004;0.30000000000000004;0.30000000000000004;0.30000000000000004;0.0;0.0;0.0;0.0;0.0;0.0,,,,,0.0,0.039266536205680005
mp-2046031,Mn3CrAs4,Mn3 Cr1 As4,,-0.49010868168103405,Monoclinic,P2/m,As;Cr;Mn,139.74432642379344,14.3663608,,4,4,FM,3.9;3.8;3.9;3.3;0.0;0.0;0.0;0.0,,,,,0.0,0.10280460872831401
mp-3210154,Mn7CrAgO16,Mn7 Cr1 Ag1 O16,,-1.981074800655172,Triclinic,P1,Ag;Cr;Mn;O,270.655601348707,23.99705,,8,8,FM,2.9;2.9;2.9;2.9;2.9;2.9;2.9;2.7;0.0;0.0;0.0;0.0;0.0;0.0;0.0;0.0;0.0;0.0;0.0;0.0;0.0;0.0;0.0;0.0;0.0,,,,,0.0,0.088662676406547
mp-3203626,Li3Ni2RuO6,Li3 Ni2 Ru1 O6,,-1.6262175156249992,Monoclinic,C2/m,Li;Ni;O;Ru,106.88483318597828,7.0005439,,9,4,FM,0.0;0.0;0.0;1.7000000000000002;1.7000000000000002;2.0;0.2;0.2;0.2;0.2;0.2;0.2,,,,,0.0,0.06549613908101501
mp-4238,MnFeAs,Mn1 Fe1 As1,,-0.252680642327583,Hexagonal,P-62m,As;Fe;Mn,117.65502412749277,14.4168722,,6,4,FM,3.5;3.5;3.5;1.6;1.6;1.6;0.0;0.0;0.0,,,,,0.09441009250000201,0.12253511744961801
mp-510575,GdMnO3,Gd1 Mn1 O3,,-3.018561577646551,Orthorhombic,Pnma,Gd;Mn;O,228.9926389386748,44.0000015,,8,2,FM,6.9;6.9;6.9;6.9;3.8;3.8;3.8;3.8;0.0;0.0;0.0;0.0;0.0;0.0;0.0;0.0;0.0;0.0;0.0;0.0,,,,,0.0,0.19214592095156102
mp-1224759,Gd2FeSbO7,Gd2 Fe1 Sb1 O7,,-2.841088052727272,Orthorhombic,Imma,Fe;Gd;O;Sb,277.80937041602766,37.9999998,,6,3,FM,6.9;6.9;6.9;6.9;4.4;4.4;0.0;0.0;0.0;0.0;0.0;0.0;0.0;0.0;0.0;0.0;0.0;0.0;0.0;0.0;0.0;0.0,,,,,0.0,0.136784442306945
mp-861629,LiMnPd2,Li1 Mn1 Pd2,,-0.524211387787357,Cubic,Fm-3m,Li;Mn;Pd,56.55580741979426,4.630896,,3,2,FM,0.0;4.1;0.2;0.2,,,,,0.0,0.08188188289182101
mp-1102618,MnCoAs,Mn1 Co1 As1,,-0.26660634181034604,Orthorhombic,Pnma,As;Co;Mn,154.7311012449396,12.4919832,,8,2,FM,3.0;3.0;3.0;3.0;0.1;0.1;0.1;0.1;0.0;0.0;0.0;0.0,,,,,0.0,0.080733498950706
mp-1218264,SrPr2Mn3O9,Sr1 Pr2 Mn3 O9,,-2.804271900141762,Monoclinic,C2/c,Mn;O;Pr;Sr,362.39656970002994,22.0021941,,6,2,FM,0.0;0.0;0.0;0.0;0.0;0.0;3.8;3.8;3.7;3.8;3.7;3.8;0.0;0.0;0.0;0.0;0.0;0.0;0.0;0.0;0.0;0.0;0.0;0.0;0.0;0.0;0.0;0.0;0.0;0.0,,,,,0.0,0.06071303080548401
mp-1196264,Zr2Mn4P3,Zr2 Mn4 P3,,-0.8695192822947461,Hexagonal,P-62m,Mn;P;Zr,495.6648399975561,27.9733754,,15,4,FM,0.0;0.0;0.0;0.0;0.0;0.0;0.0;0.0;1.7000000000000002;1.7000000000000002;1.7000000000000002;1.9;1.9;1.9;1.9;1.9;1.9;2.0;2.0;2.0;2.0;2.0;2.0;0.0;0.0;0.0;0.0;0.0;0.0;0.0;0.0;0.0;0.0;0.0;0.0;0.0,,,,,0.0,0.056436069583103
mp-20156,NaNdMnWO6,Na1 Nd1 Mn1 W1 O6,,-2.657176452181033,Monoclinic,P2_1,Mn;Na;Nd;O;W,257.19217935704063,10.0001909,,4,2,FM,0.0;0.0;0.0;0.0;4.6;4.6;0.1;0.1;0.0;0.0;0.0;0.0;0.0;0.0;0.0;0.0;0.0;0.0;0.0;0.0,,,,,0.0,0.038882173342127006
mp-556318,Cr4Si2Cl2O7,Cr4 Si2 Cl2 O7,,-2.4141481085,Monoclinic,Pc,Cl;Cr;O;Si,897.4650306055162,63.9978978,,16,8,FM,3.8;3.8;3.8;3.8;3.8;3.8;3.8;3.8;3.8;3.8;3.8;3.8;3.8;3.8;3.8;3.8;0.0;0.0;0.0;0.0;0.0;0.0;0.0;0.0;0.0;0.0;0.0;0.0;0.0;0.0;0.0;0.0;0.0;0.0;0.0;0.0;0.0;0.0;0.0;0.0;0.0;0.0;0.0;0.0;0.0;0.0;0.0;0.0;0.0;0.0;0.0;0.0;0.0;0.0;0.0;0.0;0.0;0.0;0.0;0.0,,,,,0.0,0.07130962836158701
mp-1203045,Co9Te5(PbO5)6,Co9 Te5 Pb6 O30,,-1.4853319242666672,Hexagonal,P6_322,Co;O;Pb;Te,1331.8027635441722,54.0000001,,18,4,FM,2.7;2.7;2.7;2.7;2.7;2.7;2.7;2.7;2.7;2.7;2.7;2.7;2.7;2.7;2.7;2.7;2.7;2.7;0.0;0.0;0.0;0.0;0.0;0.0;0.0;0.0;0.0;0.0;0.0;0.0;0.0;0.0;0.0;0.0;0.0;0.0;0.0;0.0;0.0;0.0;0.0;0.0;0.0;0.0;0.0;0.0;0.0;0.0;0.0;0.0;0.0;0.0;0.0;0.0;0.0;0.0;0.0;0.0;0.0;0.0;0.0;0.0;0.0;0.0;0.0;0.0;0.0;0.0;0.0;0.0;0.0;0.0;0.0;0.0;0.0;0.0;0.0;0.0;0.0;0.0;0.0;0.0;0.0;0.0;0.0;0.0;0.0;0.0;0.0;0.0;0.0;0.0;0.0;0.0;0.0;0.0;0.0;0.0;0.0;0.0,,,,,0.0,0.040546544562121006
mp-542292,Mn3AgAs3(HO6)2,Mn3 Ag1 As3 H2 O12,,-1.503847971830871,Monoclinic,C2/c,Ag;As;H;Mn;O,495.85949992024985,30.0000001,,6,2,FM,4.6;4.6;4.5;4.5;4.5;4.5;0.0;0.0;0.0;0.0;0.0;0.0;0.0;0.0;0.0;0.0;0.0;0.0;0.0;0.0;0.0;0.0;0.0;0.0;0.0;0.0;0.0;0.0;0.0;0.0;0.0;0.0;0.0;0.0;0.0;0.0;0.0;0.0;0.0;0.0;0.0;0.0,,,,,0.019126447539692,0.060501009065723005
mp-1214324,BaSmFeCuO5,Ba1 Sm1 Fe1 Cu1 O5,,-2.452790783333333,Tetragonal,P4mm,Ba;Cu;Fe;O;Sm,123.9668718760786,4.9647801,,2,4,FM,0.0;0.0;4.3;-0.0;0.0;0.0;0.0;0.0;0.2,,,,,0.0,0.040049248842569
mp-556540,Na3Fe3(PO4)4,Na3 Fe3 P4 O16,,-2.437781256642667,Monoclinic,C2/c,Fe;Na;O;P,688.7708334668374,29.9971544,,6,2,FM,0.0;0.0;0.0;0.0;0.0;0.0;4.4;4.4;4.4;4.4;4.4;4.4;0.0;0.0;0.0;0.0;0.0;0.0;0.0;0.0;0.0;0.0;0.0;0.0;0.0;0.0;0.0;0.0;0.0;0.0;0.0;0.0;0.0;0.0;0.0;0.0;0.0;0.0;0.0;0.0;0.0;0.0;0.0;0.0;0.0;0.0;0.0;0.0;0.0;0.0;0.0;0.0,,,,,0.0,0.043551719879039004
mp-558963,HfNi5(BO5)2,Hf1 Ni5 B2 O10,,-2.151686976712963,Orthorhombic,Pnma,B;Hf;Ni;O,718.9632021736016,40.0004306,,20,4,FM,0.0;0.0;0.0;0.0;1.8;1.8;1.8;1.8;1.8;1.8;1.8;1.8;1.8;1.8;1.8;1.8;1.8;1.8;1.8;1.8;1.8;1.8;1.8;1.8;0.0;0.0;0.0;0.0;0.0;0.0;0.0;0.0;0.0;0.0;0.0;0.0;0.0;0.0;0.0;0.0;0.0;0.0;0.0;0.0;0.0;0.0;0.0;0.0;0.0;0.0;0.0;0.0;0.0;0.0;0.0;0.0;0.0;0.0;0.0;0.0;0.0;0.0;0.0;0.0;0.0;0.0;0.0;0.0;0.0;0.0;0.0;0.0,,,,,0.0,0.05563626967147801
mp-510598,YMn2O5,Y1 Mn2 O5,,-2.769648182526939,Orthorhombic,Pbam,Mn;O;Y,349.15192965223,28.0000001,,8,2,FM,0.0;0.0;0.0;0.0;3.6;3.6;3.6;3.6;3.0;3.0;3.0;3.0;0.0;0.0;0.0;0.0;0.0;0.0;0.0;0.0;0.0;0.0;0.0;0.0;0.0;0.0;0.0;0.0;0.0;0.0;0.0;0.0,,,,,0.0,0.08019431577505201
mp-1221753,MnCr4CdSe8,Mn1 Cr4 Cd1 Se8,,-0.8083666911915011,Cubic,F-43m,Cd;Cr;Mn;Se,313.9316057148115,17.0006964,,5,2,FM,4.2;3.0;3.0;3.0;3.0;0.0;0.0;0.0;0.0;0.0;0.0;0.0;0.0;0.0,,,,,0.0,0.05415414087183001
mp-30551,GaFeCo2,Ga1 Fe1 Co2,,-0.267670394999999,Cubic,Fm-3m,Co;Fe;Ga,45.51183709665288,5.0977669,,3,2,FM,0.0;2.9;1.2;1.2,,,,,0.0,0.11200969297666301
mp-3202163,MgMn2SbRh4,Mg1 Mn2 Sb1 Rh4,,-0.608582600495687,Trigonal,R-3m,Mg;Mn;Rh;Sb,118.61293580613382,9.2082282,,6,3,FM,0.0;4.0;4.0;0.0;0.4;0.30000000000000004;0.30000000000000004;0.4,,,,,0.0,0.077632579763899
mp-1228863,CsMnCrF6,Cs1 Mn1 Cr1 F6,,-3.080869609731801,Orthorhombic,Imma,Cr;Cs;F;Mn,311.2374166375748,15.9991699,,4,2,FM,0.0;0.0;4.7;4.7;3.0;3.0;0.0;0.0;0.0;0.0;0.0;0.0;0.0;0.0;0.0;0.0;0.0;0.0,,,,,0.0,0.051405033729059
mp-1224799,Fe3NiP2,Fe3 Ni1 P2,,-0.31530374349206103,Orthorhombic,Pmc2_1,Fe;Ni;P,130.9938021540709,8.1922755,,8,4,FM,2.5;2.5;0.7000000000000001;0.7000000000000001;0.9;0.9;0.30000000000000004;0.30000000000000004;0.0;0.0;0.0;0.0,,,,,0.031171324843745,0.062539413050737
mp-24178,Mn3H2Se3O10,Mn3 H2 Se3 O10,,-1.594668360740243,Triclinic,P-1,H;Mn;O;Se,535.5373773832061,29.9987376,,6,4,FM,4.6;4.6;4.6;4.7;4.7;4.7;0.0;0.0;0.0;0.0;0.0;0.0;0.0;0.0;0.0;0.0;0.0;0.0;0.0;0.0;0.0;0.0;0.0;0.0;0.0;0.0;0.0;0.0;0.0;0.0;0.0;0.0;0.0;0.0;0.0;0.0,,,,,0.0,0.056016141667987004
mp-1215956,Yb2MnCoO6,Yb2 Mn1 Co1 O6,,-2.910723611198276,Monoclinic,P2_1/c,Co;Mn;O;Yb,205.1630923244935,7.9999996,,4,2,FM,0.0;0.0;0.0;0.0;3.3;3.3;0.6000000000000001;0.6000000000000001;0.0;0.0;0.0;0.0;0.0;0.0;0.0;0.0;0.0;0.0;0.0;0.0,,,,,0.0,0.038993366250041
mp-752598,Mn(AsO2)2,Mn1 As2 O4,,-1.508238732426107,Tetragonal,P4_2/mbc,As;Mn;O,423.3216319920256,19.9999992,,4,2,FM,4.5;4.5;4.5;4.5;0.0;0.0;0.0;0.0;0.0;0.0;0.0;0.0;0.0;0.0;0.0;0.0;0.0;0.0;0.0;0.0;0.0;0.0;0.0;0.0;0.0;0.0;0.0;0.0,,,,,0.023044055039683,0.047245398506771
mp-945,NiPt,Ni1 Pt1,,-0.13584162499999702,Tetragonal,P4/mmm,Ni;Pt,52.55674452311622,2.5857734,,2,2,FM,1.0;0.4,,,,,0.0,0.049199649321176
mp-548805,Co2GeO4,Co2 Ge1 O4,,-1.655759844285714,Orthorhombic,Imma,Co;Ge;O,146.17447429191347,12.0000376,,4,2,FM,2.7;2.7;2.7;2.7;0.0;0.0;0.0;0.0;0.0;0.0;0.0;0.0;0.0;0.0,,,,,0.0,0.08209393369211401
mp-558599,K2Mn2P2O7F2,K2 Mn2 P2 O7 F2,,-2.592101799744526,Orthorhombic,Pbcn,F;K;Mn;O;P,821.7376596808232,40.0000025,,8,2,FM,0.0;0.0;0.0;0.0;0.0;0.0;0.0;0.0;4.6;4.6;4.6;4.6;4.6;4.6;4.6;4.6;0.0;0.0;0.0;0.0;0.0;0.0;0.0;0.0;0.0;0.0;0.0;0.0;0.0;0.0;0.0;0.0;0.0;0.0;0.0;0.0;0.0;0.0;0.0;0.0;0.0;0.0;0.0;0.0;0.0;0.0;0.0;0.0;0.0;0.0;0.0;0.0;0.0;0.0;0.0;0.0;0.0;0.0;0.0;0.0,,,,,0.0,0.048677338842589006
mp-28826,Gd3(MnC3)2,Gd3 Mn2 C6,,-0.32755356263322405,Hexagonal,P6_3/m,C;Gd;Mn,289.2489636148009,48.0575949,,10,3,FM,6.9;6.9;6.9;6.9;6.9;6.9;2.6;2.6;1.0;1.0;0.0;0.0;0.0;0.0;0.0;0.0;0.0;0.0;0.0;0.0;0.0;0.0,,,,,0.0,0.16614612650436
mp-3203393,Mn4ReSi6Tc5,Mn4 Re1 Si6 Tc5,,-0.47406224502693506,Orthorhombic,Amm2,Mn;Re;Si;Tc,203.16510397988407,11.4444331,,9,4,FM,2.7;2.7;2.7;2.7;0.0;0.0;0.0;0.0;0.0;0.0;0.0;0.2;0.2;0.30000000000000004;0.30000000000000004;0.2,,,,,0.0,0.05633070284123701
mp-22300,FeCo2Ge,Fe1 Co2 Ge1,,-0.22152816249999802,Cubic,Fm-3m,Co;Fe;Ge,46.37467666541709,5.9961191,,3,2,FM,3.1;1.5;1.5;0.0,,,,,0.0,0.129297270216257
mp-22586,EuCrO4,Eu1 Cr1 O4,,-2.602172533333333,Tetragonal,I4_1/amd,Cr;Eu;O,172.8617879545214,13.9999997,,4,2,FM,6.4;6.4;0.6000000000000001;0.6000000000000001;-0.0;-0.0;-0.0;-0.0;-0.0;-0.0;-0.0;-0.0,,,,,0.0,0.08098955741267201
mp-3201257,Sc2MnSnRh4,Sc2 Mn1 Sn1 Rh4,,-0.892280259310343,Trigonal,R-3m,Mn;Rh;Sc;Sn,127.24871970492725,4.9131561999999995,,3,3,FM,0.0;0.0;4.1;0.0;0.0;0.30000000000000004;0.30000000000000004;0.0,,,,,0.0,0.038610653304747