ID,pretty_formula,compound,energy_cell,energy_atom,lattice_system,spacegroup,species,volume_cell,moment_cell,mag_field,mag_sites_MP,mag_sites,mag_type,magmom,comment1,icsd_ids,doi,comment2,e_above_hull,magnetization_norm_vol
mp-1204934,CrAsO4,Cr1 As1 O4,,-1.7705296476388872,Orthorhombic,Imma,As;Cr;O,460.30187013097736,18.0000007,,6,3,FM,2.8;2.8;2.8;2.8;2.8;2.8;0.0;0.0;0.0;0.0;0.0;0.0;0.0;0.0;0.0;0.0;0.0;0.0;0.0;0.0;0.0;0.0;0.0;0.0;0.0;0.0;0.0;0.0;0.0;0.0;0.0;0.0;0.0;0.0;0.0;0.0,,,,,0.0,0.039104774210189
mp-640047,Mn2GeSe4,Mn2 Ge1 Se4,,-0.69382169538793,Orthorhombic,Pnma,Ge;Mn;Se,665.9296129706696,39.9989878,,8,2,FM,4.5;4.5;4.5;4.4;4.5;4.4;4.4;4.4;0.0;0.0;0.0;0.0;0.0;0.0;0.0;0.0;0.0;0.0;0.0;0.0;0.0;0.0;0.0;0.0;0.0;0.0;0.0;0.0,,,,,0.0,0.060064888271850005
mp-3204178,KMn3CoO8,K1 Mn3 Co1 O8,,-1.959050049015251,Monoclinic,C2/m,Co;K;Mn;O,179.0532350054987,9.0000788,,4,3,FM,0.0;2.9;2.9;2.9;0.1;0.0;0.0;0.0;0.0;0.0;0.0;0.0;0.0,,,,,0.0,0.050264820960780006
mp-645286,Gd(Co2B)6,Gd1 Co12 B6,,-0.015676407631577002,Trigonal,R-3m,B;Co;Gd,185.66948192660865,10.1727735,,13,3,FM,0.8;0.4;0.4;0.4;1.3;1.3;1.3;1.3;0.4;0.4;1.3;0.4;1.3;0.0;0.0;0.0;0.0;0.0;0.0,,,,,0.238322101578948,0.054789690769003
mp-556404,Na2MnPO4F,Na2 Mn1 P1 O4 F1,,-2.66222519198139,Monoclinic,P2_1/c,F;Mn;Na;O;P,900.6264746009058,39.9943948,,8,2,FM,0.0;0.0;0.0;0.0;0.0;0.0;0.0;0.0;0.0;0.0;0.0;0.0;0.0;0.0;0.0;0.0;4.7;4.7;4.7;4.7;4.7;4.7;4.7;4.7;0.0;0.0;0.0;0.0;0.0;0.0;0.0;0.0;0.0;0.0;0.0;0.0;0.0;0.0;0.0;0.0;0.0;0.0;0.0;0.0;0.0;0.0;0.0;0.0;0.0;0.0;0.0;0.0;0.0;0.0;0.0;0.0;0.0;0.0;0.0;0.0;0.0;0.0;0.0;0.0;0.0;0.0;0.0;0.0;0.0;0.0;0.0;0.0,,,,,0.0,0.044407305279053004
mp-3201230,Mn2Co4SnSb,Mn2 Co4 Sn1 Sb1,,-0.21529172737069002,Trigonal,R-3m,Co;Mn;Sb;Sn,105.87506791641543,11.0024965,,6,3,FM,3.5;3.5;1.1;1.1;1.1;1.1;0.0;0.0,,,,,0.0,0.10391961692705601
mp-3203738,CrGaNiO4,Cr1 Ga1 Ni1 O4,,-1.988906582857143,Orthorhombic,Imma,Cr;Ga;Ni;O,141.50313597592432,10.0000167,,4,2,FM,2.8;2.8;0.0;0.0;1.7000000000000002;1.7000000000000002;0.0;0.0;0.0;0.0;0.0;0.0;0.0;0.0,,,,,0.0,0.07066992989965501
mp-581532,Cs3Fe4(PO4)5,Cs3 Fe4 P5 O20,,-2.264721695465029,Orthorhombic,Pccn,Cs;Fe;O;P,1930.575457660518,80.0000038,,16,2,FM,0.0;0.0;0.0;0.0;0.0;0.0;0.0;0.0;0.0;0.0;0.0;0.0;4.2;4.2;4.2;4.2;4.2;4.2;4.2;4.2;4.2;4.2;4.2;4.2;4.2;4.2;4.2;4.2;0.0;0.0;0.0;0.0;0.0;0.0;0.0;0.0;0.0;0.0;0.0;0.0;0.0;0.0;0.0;0.0;0.0;0.0;0.0;0.0;0.0;0.0;0.0;0.0;0.0;0.0;0.0;0.0;0.0;0.0;0.0;0.0;0.0;0.0;0.0;0.0;0.0;0.0;0.0;0.0;0.0;0.0;0.0;0.0;0.0;0.0;0.0;0.0;0.0;0.0;0.0;0.0;0.0;0.0;0.0;0.0;0.0;0.0;0.0;0.0;0.0;0.0;0.0;0.0;0.0;0.0;0.0;0.0;0.0;0.0;0.0;0.0;0.0;0.0;0.0;0.0;0.0;0.0;0.0;0.0;0.0;0.0;0.0;0.0;0.0;0.0;0.0;0.0;0.0;0.0;0.0;0.0;0.0;0.0;0.0;0.0;0.0;0.0;0.0;0.0,,,,,0.0,0.041438423700332
mp-3202841,Mn2GaCo4Si,Mn2 Ga1 Co4 Si1,,-0.41355301799569005,Trigonal,R-3m,Co;Ga;Mn;Si,89.01543870297166,9.0691875,,6,3,FM,3.1;3.1;0.0;0.8;0.9;0.8;0.9;0.0,,,,,0.0,0.10188330959376801
mp-1209473,RbNa3Fe7(PO4)6,Rb1 Na3 Fe7 P6 O24,,-2.376098710841344,Monoclinic,C2/c,Fe;Na;O;P;Rb,1051.8758477768738,55.9924765,,14,5,FM,0.0;0.0;0.0;0.0;0.0;0.0;0.0;0.0;3.8;3.8;3.8;3.8;3.8;3.8;3.8;3.8;3.8;3.8;3.8;3.8;3.8;3.8;0.0;0.0;0.0;0.0;0.0;0.0;0.0;0.0;0.0;0.0;0.0;0.0;0.0;0.0;0.0;0.0;0.0;0.0;0.0;0.0;0.0;0.0;0.0;0.0;0.0;0.0;0.0;0.0;0.0;0.0;0.0;0.0;0.0;0.0;0.0;0.0;0.0;0.0;0.0;0.0;0.0;0.0;0.0;0.0;0.0;0.0;0.0;0.0;0.0;0.0;0.0;0.0;0.0;0.0;0.0;0.0;0.0;0.0;0.0;0.0,,,,,0.0,0.053231069634633005
mp-1214455,BaFe2Si2O7,Ba1 Fe2 Si2 O7,,-2.7611882820833342,Monoclinic,P2_1/c,Ba;Fe;O;Si,677.0972474214639,32.0000329,,8,2,FM,0.0;0.0;0.0;0.0;3.8;3.8;3.8;3.8;3.8;3.8;3.8;3.8;0.0;0.0;0.0;0.0;0.0;0.0;0.0;0.0;0.0;0.0;0.0;0.0;0.0;0.0;0.0;0.0;0.0;0.0;0.0;0.0;0.0;0.0;0.0;0.0;0.0;0.0;0.0;0.0;0.0;0.0;0.0;0.0;0.0;0.0;0.0;0.0,,,,,0.0,0.047260615844863005
mp-17899,Mn3V2O8,Mn3 V2 O8,,-2.388254214111406,Orthorhombic,Cmce,Mn;O;V,303.38857642765294,30.0000019,,10,3,FM,4.4;4.4;4.4;4.4;4.4;4.4;0.5;0.5;0.5;0.5;0.0;0.0;0.0;0.0;0.0;0.0;0.0;0.0;0.0;0.0;0.0;0.0;0.0;0.0;0.0;0.0,,,,,0.0,0.098883096566273
mp-1212655,Gd2MnNiO6,Gd2 Mn1 Ni1 O6,,-2.801422737293103,Monoclinic,P2_1/c,Gd;Mn;Ni;O,230.46603607153597,38.0000002,,8,3,FM,6.9;6.9;6.9;6.9;3.2;3.2;1.8;1.8;0.0;0.0;0.0;0.0;0.0;0.0;0.0;0.0;0.0;0.0;0.0;0.0,,,,,0.0,0.16488329841454302
mp-28079,Na2Mn2S3,Na2 Mn2 S3,,-1.220342629271858,Monoclinic,C2/c,Mn;Na;S,609.8978540446008,39.9999997,,8,2,FM,0.0;0.0;0.0;0.0;0.0;0.0;0.0;0.0;4.4;4.4;4.4;4.4;4.4;4.4;4.4;4.4;0.0;0.0;0.0;0.0;0.0;0.0;0.0;0.0;0.0;0.0;0.0;0.0,,,,,0.0,0.065584752323255
mp-3208304,HfMn(Be4Ir)2,Hf1 Mn1 Be8 Ir2,,-0.573211679540229,Trigonal,P3m1,Be;Hf;Ir;Mn,123.99264788856723,4.8889184,,2,3,FM,-0.0;3.9;-0.0;-0.0;-0.0;-0.0;-0.0;-0.0;-0.0;-0.0;-0.0;0.30000000000000004,,,,,0.0,0.039429099089759
mp-20673,Mg(FeGe)6,Mg1 Fe6 Ge6,,-0.047286863461537,Hexagonal,P6/mmm,Fe;Ge;Mg,180.54143734936986,13.602311199999999,,6,2,FM,0.0;2.5;2.5;2.5;2.5;2.5;2.5;0.0;0.0;0.0;0.0;0.0;0.0,,,,,0.035320957307691005,0.075341768624993
mp-1105776,Rb2Mn3S4,Rb2 Mn3 S4,,-1.248027545244252,Orthorhombic,Ibam,Mn;Rb;S,468.2149689648238,30.0000011,,6,2,FM,0.0;0.0;0.0;0.0;4.4;4.4;4.4;4.4;4.4;4.4;0.0;0.0;0.0;0.0;0.0;0.0;0.0;0.0,,,,,0.0,0.06407313539404101
mp-3204441,Mn3CdP6N13,Mn3 Cd1 P6 N13,,-0.6512146102197991,Monoclinic,Cm,Cd;Mn;N;P,271.09357739629235,14.000047,,3,3,FM,4.3;4.3;4.2;0.0;0.0;0.0;0.0;0.0;0.0;0.0;0.0;0.0;0.0;0.0;0.0;0.0;0.0;0.0;0.0;0.0;0.0;0.0;0.0,,,,,0.0,0.051642857549274
mp-1190470,Gd2CoTe2(SO7)2,Gd2 Co1 Te2 S2 O14,,-2.288152659920634,Triclinic,P-1,Co;Gd;O;S;Te,301.89063681645126,14.9999998,,3,2,FM,6.9;6.9;0.9;0.0;0.0;0.0;0.0;0.0;0.0;0.0;0.0;0.0;0.0;0.0;0.0;0.0;0.0;0.0;0.0;0.0;0.0,,,,,0.0,0.04968686660235801
mp-1190438,Eu2CoTe2(SO7)2,Eu2 Co1 Te2 S2 O14,,-2.142991763730158,Triclinic,P-1,Co;Eu;O;S;Te,305.67688663456073,16.8286433,,3,2,FM,6.5;6.5;3.1;0.0;0.0;0.0;0.0;0.0;0.0;0.0;0.0;0.0;0.0;0.0;0.0;0.0;0.0;0.0;0.0;0.0;0.0,,,,,0.0,0.05505369897371001
mp-1225377,Eu2FeP3Pt7,Eu2 Fe1 P3 Pt7,,-0.770331779532966,Tetragonal,I-4m2,Eu;Fe;P;Pt,225.011608079594,17.6349157,,4,6,FM,6.7;6.7;3.4;0.0;0.0;0.0;0.0;0.0;0.0;0.0;0.0;0.0;0.2,,,,,0.0,0.078373359714677
mp-1226784,Ce2Mn(SeO)2,Ce2 Mn1 Se2 O2,,-2.617230367516932,Tetragonal,P-4m2,Ce;Mn;O;Se,147.9236917491917,6.9975871,,3,2,FM,0.9;0.9;4.6;0.0;0.0;0.0;0.0,,,,,0.0,0.047305384399576
mp-1191216,Cs4Fe2O5,Cs4 Fe2 O5,,-1.611420198522727,Monoclinic,C2/c,Cs;Fe;O,499.69147498945404,19.9999999,,14,4,FM,0.0;0.0;0.0;0.0;0.0;0.0;0.0;0.0;3.9;3.9;3.9;3.9;0.30000000000000004;0.30000000000000004;0.30000000000000004;0.30000000000000004;0.30000000000000004;0.30000000000000004;0.30000000000000004;0.30000000000000004;0.30000000000000004;0.30000000000000004,,,,,0.0,0.040024697040152005
mp-3201292,Mn2GaGeRh4,Mn2 Ga1 Ge1 Rh4,,-0.702029561120689,Trigonal,R-3m,Ga;Ge;Mn;Rh,109.59469291384168,9.1402162,,6,3,FM,3.9;3.9;0.0;0.0;0.4;0.30000000000000004;0.4;0.30000000000000004,,,,,0.0,0.083400171641391
mp-772462,Sr21Fe14O47,Sr21 Fe14 O47,,-2.457592081356707,Triclinic,P-1,Fe;O;Sr,1047.1537350168337,59.4749994,,18,31,FM,0.0;0.0;0.0;0.0;0.0;0.0;0.0;0.0;0.0;0.0;0.0;0.0;0.0;0.0;0.0;0.0;0.0;0.0;0.0;0.0;0.0;3.7;3.4;3.6;3.4;3.7;3.4;3.6;3.6;3.5;3.7;3.4;3.6;3.5;3.7;0.0;0.0;0.0;0.0;0.0;0.30000000000000004;0.0;0.0;0.0;0.0;0.0;0.0;0.0;0.30000000000000004;0.0;0.0;0.0;0.30000000000000004;0.0;0.0;0.0;0.0;0.0;0.0;0.0;0.0;0.0;0.0;0.0;0.0;0.0;0.0;0.0;0.0;0.0;0.30000000000000004;0.0;0.0;0.0;0.0;0.0;0.0;0.0;0.0;0.0;0.0;0.0,,,,,9.95954268301347e-05,0.056796817326009004
mp-3209710,Fe4PdPt3,Fe4 Pd1 Pt3,,-0.29714655,Tetragonal,I4/mmm,Fe;Pd;Pt,110.95637988851597,14.1864102,,8,4,FM,3.3;3.3;3.3;3.3;0.30000000000000004;0.30000000000000004;0.30000000000000004;0.30000000000000004,,,,,0.0,0.127855741276471
mp-1219557,RbMnCuS2,Rb1 Mn1 Cu1 S2,,-0.923388710086207,Tetragonal,I-4m2,Cu;Mn;Rb;S,109.92790064882303,5.0010134,,2,2,FM,0.0;4.1;0.2;0.0;0.0,,,,,0.0,0.045493576885237
mp-3201469,Zn2Fe3RhO8,Zn2 Fe3 Rh1 O8,,-1.54039249,Trigonal,R-3m,Fe;O;Rh;Zn,150.65374328127706,15.0001519,,11,3,FM,0.0;0.0;4.1;4.1;4.1;0.0;0.30000000000000004;0.2;0.2;0.2;0.30000000000000004;0.2;0.2;0.2,,,,,0.0,0.09956707064353501
mp-3201931,Mn2AlCo4Sb,Mn2 Al1 Co4 Sb1,,-0.331451989870688,Trigonal,R-3m,Al;Co;Mn;Sb,98.58943885236893,10.009951,,6,3,FM,3.3;3.3;0.0;1.1;0.9;1.1;0.9;0.0,,,,,0.0,0.101531676379548
mp-22341,PrFeO3,Pr1 Fe1 O3,,-2.695328557083334,Orthorhombic,Pnma,Fe;O;Pr,242.4558416265244,19.9690725,,16,3,FM,0.0;0.0;0.0;0.0;4.2;4.2;4.2;4.2;0.2;0.2;0.2;0.2;0.2;0.2;0.2;0.2;0.2;0.2;0.2;0.2,,,,,0.0,0.08236168848742301
mp-1189157,Mn5SiB2,Mn5 Si1 B2,,-0.41097455599856403,Tetragonal,I4/mcm,B;Mn;Si,159.5819553733363,15.7212503,,10,2,FM,1.3;1.3;1.7000000000000002;1.7000000000000002;1.7000000000000002;1.7000000000000002;1.7000000000000002;1.7000000000000002;1.7000000000000002;1.7000000000000002;0.0;0.0;0.0;0.0;0.0;0.0,,,,,0.0,0.098515212846093
mp-866656,GdFeB4,Gd1 Fe1 B4,,-0.5305598379166641,Orthorhombic,Pbam,B;Fe;Gd,233.9303654415596,33.81547,,8,2,FM,6.9;6.9;6.9;6.9;1.6;1.6;1.6;1.6;0.0;0.0;0.0;0.0;0.0;0.0;0.0;0.0;0.0;0.0;0.0;0.0;0.0;0.0;0.0;0.0,,,,,0.006088251736112001,0.14455357232555502
mp-1194620,Y(FeGe)6,Y1 Fe6 Ge6,,-0.272108088461538,Orthorhombic,Cmcm,Fe;Ge;Y,366.23007798733073,21.7698495,,12,3,FM,0.0;0.0;1.9;1.9;1.9;1.9;1.9;1.9;1.9;1.9;1.9;1.9;1.9;1.9;0.0;0.0;0.0;0.0;0.0;0.0;0.0;0.0;0.0;0.0;0.0;0.0,,,,,0.0,0.059443095497888
mp-3333,Eu(NiGe)2,Eu1 Ni2 Ge2,,-0.5930052649999991,Tetragonal,I4/mmm,Eu;Ge;Ni,84.72376710035394,7.2087299,,3,2,FM,6.7;0.1;0.1;0.0;0.0,,,,,0.0,0.085085096504991
mp-4052,Rb2Mn3Se4,Rb2 Mn3 Se4,,-1.175229383022029,Orthorhombic,Ibam,Mn;Rb;Se,523.8250324176828,29.9999994,,6,2,FM,0.0;0.0;0.0;0.0;4.4;4.4;4.4;4.4;4.4;4.4;0.0;0.0;0.0;0.0;0.0;0.0;0.0;0.0,,,,,0.0,0.057271030484237005
mp-505622,Mn4N,Mn4 N1,,-0.295696929336207,Cubic,Pm-3m,Mn;N,63.28332183078382,13.9845402,,4,2,FM,3.9;3.4;3.4;3.4;0.0,,,,,0.0,0.22098302989520502
mp-2213,FeNi,Fe1 Ni1,,-0.10167408249999801,Tetragonal,P4/mmm,Fe;Ni,44.565559886299106,7.0750505,,2,2,FM,2.9;0.8,,,,,0.0,0.158756010651514
mp-16887,Ba2CoO4,Ba2 Co1 O4,,-2.249687151428572,Monoclinic,P2_1/c,Ba;Co;O,479.1449570833152,20.0,,20,5,FM,0.0;0.0;0.0;0.0;0.0;0.0;0.0;0.0;3.1;3.1;3.1;3.1;0.4;0.4;0.4;0.4;0.4;0.4;0.4;0.4;0.4;0.4;0.4;0.4;0.4;0.4;0.4;0.4,,,,,0.0,0.041741021593434006
mp-758049,Sr12Fe8O27,Sr12 Fe8 O27,,-2.455098847579788,Triclinic,P-1,Fe;O;Sr,597.709811397985,33.6916304,,10,18,FM,0.0;0.0;0.0;0.0;0.0;0.0;0.0;0.0;0.0;0.0;0.0;0.0;3.4;3.6;3.6;3.6;3.6;3.6;3.6;3.4;0.30000000000000004;0.0;0.0;0.0;0.0;0.0;0.0;0.0;0.0;0.0;0.0;0.0;0.0;0.0;0.0;0.0;0.0;0.0;0.0;0.0;0.0;0.0;0.0;0.0;0.30000000000000004;0.0;0.0,,,,,0.0,0.056367872431604
mp-28818,RbCr5Se8,Rb1 Cr5 Se8,,-0.9515884266964281,Monoclinic,C2/m,Cr;Rb;Se,308.8300728600329,14.9999993,,5,3,FM,0.0;3.1;3.2;3.1;3.1;3.2;0.0;0.0;0.0;0.0;0.0;0.0;0.0;0.0,,,,,0.0,0.048570397180193
mp-3212151,RbMn3CrO8,Rb1 Mn3 Cr1 O8,,-2.163597504207559,Monoclinic,C2/m,Cr;Mn;O;Rb,194.46230100312877,12.0000512,,4,3,FM,0.0;3.0;3.0;3.0;2.8;0.0;0.0;0.0;0.0;0.0;0.0;0.0;0.0,,,,,0.0,0.06170888207173301
mp-3207081,MnRu2F12,Mn1 Ru2 F12,,-2.137388250298851,Triclinic,P-1,F;Mn;Ru,205.6255419171658,11.0001015,,3,2,FM,4.6;2.2;2.2;0.0;0.0;0.0;0.0;0.0;0.0;0.0;0.0;0.0;0.0;0.0;0.0,,,,,0.0,0.053495793360298007
mp-1219885,Pr2VFeO6,Pr2 V1 Fe1 O6,,-2.987337114833333,Monoclinic,P2_1/c,Fe;O;Pr;V,249.16676067575338,13.9999971,,4,2,FM,0.0;0.0;0.0;0.0;1.9;1.9;4.3;4.3;0.0;0.0;0.0;0.0;0.0;0.0;0.0;0.0;0.0;0.0;0.0;0.0,,,,,0.0,0.05618725813198801
mp-4990,MnSnRh2,Mn1 Sn1 Rh2,,-0.6274160336206861,Cubic,Fm-3m,Mn;Rh;Sn,61.371901631820954,5.0245005,,3,2,FM,4.0;0.0;0.5;0.5,,,,,0.0,0.081869721589249
mp-605437,FeHO2,Fe1 H1 O2,,-1.3895643428125,Orthorhombic,Pnma,Fe;H;O,139.06684407867542,20.0000003,,12,3,FM,4.2;4.2;4.2;4.2;0.0;0.0;0.0;0.0;0.2;0.4;0.4;0.4;0.2;0.2;0.2;0.4,,,,,0.0,0.143815734314681
mp-553960,K4Fe2O5,K4 Fe2 O5,,-1.66497283306818,Monoclinic,P2_1/c,Fe;K;O,368.1210813258541,19.9999987,,14,4,FM,0.0;0.0;0.0;0.0;0.0;0.0;0.0;0.0;4.0;4.0;4.0;4.0;0.30000000000000004;0.30000000000000004;0.30000000000000004;0.30000000000000004;0.30000000000000004;0.30000000000000004;0.30000000000000004;0.30000000000000004;0.30000000000000004;0.30000000000000004,,,,,0.0,0.05432994662507801
mp-735131,Sr2Fe2H2OF10,Sr2 Fe2 H2 O1 F10,,-2.979767527647059,Orthorhombic,Cmce,F;Fe;H;O;Sr,873.0645375221881,40.0004533,,8,2,FM,0.0;0.0;0.0;0.0;0.0;0.0;0.0;0.0;4.5;4.5;4.5;4.5;4.5;4.5;4.5;4.5;0.0;0.0;0.0;0.0;0.0;0.0;0.0;0.0;0.0;0.0;0.0;0.0;0.0;0.0;0.0;0.0;0.0;0.0;0.0;0.0;0.0;0.0;0.0;0.0;0.0;0.0;0.0;0.0;0.0;0.0;0.0;0.0;0.0;0.0;0.0;0.0;0.0;0.0;0.0;0.0;0.0;0.0;0.0;0.0;0.0;0.0;0.0;0.0;0.0;0.0;0.0;0.0,,,,,0.0,0.045816147124156006
mp-20223,Mn2GeO4,Mn2 Ge1 O4,,-1.9482429855665022,Orthorhombic,Pnma,Ge;Mn;O,340.7937677956049,40.0000031,,8,2,FM,4.6;4.6;4.6;4.6;4.6;4.6;4.6;4.6;0.0;0.0;0.0;0.0;0.0;0.0;0.0;0.0;0.0;0.0;0.0;0.0;0.0;0.0;0.0;0.0;0.0;0.0;0.0;0.0,,,,,0.025056159857131003,0.11737304751415001
mp-554900,KMnO2,K1 Mn1 O2,,-2.021411029558189,Monoclinic,P2_1/m,K;Mn;O,709.7882964547293,48.0000026,,12,4,FM,0.0;0.0;0.0;0.0;0.0;0.0;0.0;0.0;0.0;0.0;0.0;0.0;3.6;3.7;3.6;3.7;3.7;3.6;3.6;3.7;3.6;3.7;3.6;3.7;0.0;0.0;0.0;0.0;0.0;0.0;0.0;0.0;0.0;0.0;0.0;0.0;0.0;0.0;0.0;0.0;0.0;0.0;0.0;0.0;0.0;0.0;0.0;0.0,,,,,0.0,0.067625801721093
mp-1185926,Mn2PdPt,Mn2 Pd1 Pt1,,-0.661504904741374,Cubic,Fm-3m,Mn;Pd;Pt,60.281392926850216,9.2097234,,4,3,FM,4.1;4.1;0.30000000000000004;0.4,,,,,0.0,0.15277887508630902
mp-1228886,CsVFeF6,Cs1 V1 Fe1 F6,,-3.014621490517241,Orthorhombic,Imma,Cs;F;Fe;V,303.85829826298664,12.0,,4,2,FM,0.0;0.0;1.9;1.9;3.8;3.8;0.0;0.0;0.0;0.0;0.0;0.0;0.0;0.0;0.0;0.0;0.0;0.0,,,,,0.0,0.039492092427945005
mp-3206637,K2MnNiF6,K2 Mn1 Ni1 F6,,-2.811797210198276,Cubic,Fm-3m,F;K;Mn;Ni,137.03311069592476,6.9999994,,2,2,FM,0.0;0.0;4.6;1.8;0.0;0.0;0.0;0.0;0.0;0.0,,,,,0.0,0.051082540303218
mp-1228445,Ba3Fe2TeO9,Ba3 Fe2 Te1 O9,,-2.3453288891111113,Hexagonal,P6_3mc,Ba;Fe;O;Te,430.51017380481954,20.0023485,,10,5,FM,0.0;0.0;0.0;0.0;0.0;0.0;4.3;4.3;4.3;4.3;0.0;0.0;0.0;0.0;0.0;0.0;0.0;0.0;0.0;0.0;0.0;0.30000000000000004;0.30000000000000004;0.30000000000000004;0.0;0.0;0.0;0.30000000000000004;0.30000000000000004;0.30000000000000004,,,,,0.0,0.046461964703924004
mp-19345,ErMn2O5,Er1 Mn2 O5,,-2.7846726907561052,Orthorhombic,Pbam,Er;Mn;O,342.69483342028064,28.0000016,,8,2,FM,0.0;0.0;0.0;0.0;3.6;3.6;3.6;3.6;3.0;3.0;3.0;3.0;0.0;0.0;0.0;0.0;0.0;0.0;0.0;0.0;0.0;0.0;0.0;0.0;0.0;0.0;0.0;0.0;0.0;0.0;0.0;0.0,,,,,0.0,0.081705350852666
mp-505217,Co2PHO5,Co2 P1 H1 O5,,-1.920177615654762,Orthorhombic,Pnnm,Co;H;O;P,414.337756567037,24.0000396,,8,2,FM,2.7;2.7;2.7;2.7;2.7;2.7;2.7;2.7;0.0;0.0;0.0;0.0;0.0;0.0;0.0;0.0;0.0;0.0;0.0;0.0;0.0;0.0;0.0;0.0;0.0;0.0;0.0;0.0;0.0;0.0;0.0;0.0;0.0;0.0;0.0;0.0,,,,,0.0,0.057923853715023
mp-3210990,CsMn3CoO8,Cs1 Mn3 Co1 O8,,-1.9664479833421762,Monoclinic,C2/m,Co;Cs;Mn;O,200.64962805573876,9.0030352,,4,3,FM,0.0;2.9;2.9;2.9;0.1;0.0;0.0;0.0;0.0;0.0;0.0;0.0;0.0,,,,,0.0,0.044869433784841005
mp-1195181,Co4Se3Cl2O9,Co4 Se3 Cl2 O9,,-1.296382262473958,Orthorhombic,Pnma,Cl;Co;O;Se,1162.0046666373848,47.9998771,,16,2,FM,2.7;2.7;2.7;2.7;2.7;2.7;2.7;2.7;2.7;2.7;2.7;2.7;2.7;2.7;2.7;2.7;0.0;0.0;0.0;0.0;0.0;0.0;0.0;0.0;0.0;0.0;0.0;0.0;0.0;0.0;0.0;0.0;0.0;0.0;0.0;0.0;0.0;0.0;0.0;0.0;0.0;0.0;0.0;0.0;0.0;0.0;0.0;0.0;0.0;0.0;0.0;0.0;0.0;0.0;0.0;0.0;0.0;0.0;0.0;0.0;0.0;0.0;0.0;0.0;0.0;0.0;0.0;0.0;0.0;0.0;0.0;0.0,,,,,0.0,0.041307817841129
mp-583224,EuCo8P5,Eu1 Co8 P5,,-0.6177269839200661,Orthorhombic,Pmmn,Co;Eu;P,338.08513723720824,23.210902,,18,6,FM,6.7;6.7;0.2;0.30000000000000004;0.7000000000000001;0.2;0.6000000000000001;1.3;0.30000000000000004;1.3;0.6000000000000001;1.3;0.2;1.3;0.7000000000000001;0.7000000000000001;0.2;0.7000000000000001;-0.0;-0.0;-0.0;-0.0;-0.0;-0.0;-0.0;-0.0;-0.0;-0.0,,,,,0.0,0.06865401475402501
mp-1224957,Fe3Mo6RhN2,Fe3 Mo6 Rh1 N2,,-0.23471216125000002,Monoclinic,P2_1,Fe;Mo;N;Rh,299.283334990475,12.7733542,,6,3,FM,2.0;2.0;2.1;2.2;2.1;2.2;-0.0;-0.0;-0.0;-0.0;-0.0;-0.0;-0.0;-0.0;-0.0;-0.0;-0.0;-0.0;0.0;0.0;0.0;0.0;0.0;0.0,,,,,0.0,0.042679804408108
mp-1218259,SrNd2Mn3O9,Sr1 Nd2 Mn3 O9,,-2.922951274646552,Orthorhombic,Pnma,Mn;Nd;O;Sr,686.8960271839836,43.9999992,,12,2,FM,0.0;0.0;0.0;0.0;0.0;0.0;0.0;0.0;0.0;0.0;0.0;0.0;3.5;3.5;3.5;3.5;3.5;3.5;3.5;3.5;3.5;3.5;3.5;3.5;0.0;0.0;0.0;0.0;0.0;0.0;0.0;0.0;0.0;0.0;0.0;0.0;0.0;0.0;0.0;0.0;0.0;0.0;0.0;0.0;0.0;0.0;0.0;0.0;0.0;0.0;0.0;0.0;0.0;0.0;0.0;0.0;0.0;0.0;0.0;0.0,,,,,0.0,0.06405627265072901
mp-541990,SrMn2(PO4)2,Sr1 Mn2 P2 O8,,-2.8170864182805992,Triclinic,P-1,Mn;O;P;Sr,712.1908186108058,40.0005937,,8,4,FM,0.0;0.0;0.0;0.0;4.7;4.7;4.7;4.7;4.7;4.7;4.7;4.7;0.0;0.0;0.0;0.0;0.0;0.0;0.0;0.0;0.0;0.0;0.0;0.0;0.0;0.0;0.0;0.0;0.0;0.0;0.0;0.0;0.0;0.0;0.0;0.0;0.0;0.0;0.0;0.0;0.0;0.0;0.0;0.0;0.0;0.0;0.0;0.0;0.0;0.0;0.0;0.0,,,,,0.0,0.056165556554105
mp-1181961,Cr5S8,Cr5 S8,,-0.9511238886538471,Monoclinic,C2/m,Cr;S,457.4841617819021,27.9998481,,5,4,FM,2.9;2.9;3.0;3.0;3.1;0.0;0.0;0.0;0.0;0.0;0.0;0.0;0.0,,,,,0.021786103353365,0.061203972594243004
mp-3209455,CsMn3Ge2O9,Cs1 Mn3 Ge2 O9,,-2.011737992813217,Hexagonal,P6_3/mmc,Cs;Ge;Mn;O,429.16755358298667,23.9996534,,6,6,FM,0.0;0.0;3.7;3.7;3.7;3.7;3.7;3.7;0.0;0.0;0.0;0.0;0.0;0.0;0.0;0.0;0.0;0.0;0.0;0.0;0.0;0.0;0.0;0.0;0.0;0.0;0.0;0.0;0.0;0.0,,,,,0.0,0.05592140691819301
mp-3212566,Lu2TiCr2O8,Lu2 Ti1 Cr2 O8,,-3.292341782307692,Monoclinic,C2,Cr;Lu;O;Ti,149.24486111376862,5.9999999,,2,2,FM,0.0;0.0;0.0;2.8;2.8;0.0;0.0;0.0;0.0;0.0;0.0;0.0;0.0,,,,,0.0,0.040202388579572
mp-19393,NdMn2O5,Nd1 Mn2 O5,,-2.724893904089439,Orthorhombic,Pbam,Mn;Nd;O,370.17611200563937,28.0000001,,8,2,FM,0.0;0.0;0.0;0.0;3.6;3.6;3.6;3.6;3.0;3.0;3.0;3.0;0.0;0.0;0.0;0.0;0.0;0.0;0.0;0.0;0.0;0.0;0.0;0.0;0.0;0.0;0.0;0.0;0.0;0.0;0.0;0.0,,,,,0.0,0.07563967309585101
mp-19455,MnMoO4,Mn1 Mo1 O4,,-2.20572165908046,Monoclinic,P2/c,Mn;Mo;O,134.7190612798825,10.000001,,4,2,FM,4.4;4.4;0.30000000000000004;0.30000000000000004;0.0;0.0;0.0;0.0;0.0;0.0;0.0;0.0,,,,,0.0,0.074228553146052
mp-1198455,MnPHO3,Mn1 P1 H1 O3,,-2.090856610012315,Monoclinic,P2_1/c,H;Mn;O;P,595.9460541698684,39.9993539,,8,2,FM,4.7;4.7;4.7;4.7;4.7;4.7;4.7;4.7;0.0;0.0;0.0;0.0;0.0;0.0;0.0;0.0;0.0;0.0;0.0;0.0;0.0;0.0;0.0;0.0;0.0;0.0;0.0;0.0;0.0;0.0;0.0;0.0;0.0;0.0;0.0;0.0;0.0;0.0;0.0;0.0;0.0;0.0;0.0;0.0;0.0;0.0;0.0;0.0,,,,,0.0,0.06711908505832401
mp-2759499,KCoF4,K1 Co1 F4,,-2.496964541458333,Tetragonal,P4/nmm,Co;F;K,331.033870246379,16.0000012,,12,5,FM,0.0;0.0;0.0;0.0;3.2;3.2;3.2;3.2;0.0;0.0;0.0;0.0;0.2;0.2;0.2;0.2;0.0;0.0;0.0;0.0;0.2;0.2;0.2;0.2,,,,,0.0,0.048333426389546005
mp-3200935,Cs2Mn2ZnS4,Cs2 Mn2 Zn1 S4,,-1.231951016135058,Orthorhombic,C222,Cs;Mn;S;Zn,242.39652874525953,9.9999489,,2,2,FM,0.0;0.0;4.4;4.4;0.0;0.0;0.0;0.0;0.0,,,,,0.0,0.041254505383239
mp-756366,LiMnNiO4,Li1 Mn1 Ni1 O4,,-1.706483919466339,Orthorhombic,Imma,Li;Mn;Ni;O,139.83127060839615,8.0000771,,4,2,FM,0.0;0.0;3.1;3.1;1.3;1.3;0.0;0.0;0.0;0.0;0.0;0.0;0.0;0.0,,,,,0.0,0.05721236076302601
mp-1222067,Mn4Cr(Co2Ge)5,Mn4 Cr1 Co10 Ge5,,-0.22292983133620603,Trigonal,R-3m,Co;Cr;Ge;Mn,235.31151391172355,24.0055799,,15,8,FM,3.0;3.1;3.1;3.0;2.1;1.0;1.0;1.0;0.9;1.0;0.9;1.0;1.0;1.0;1.0;0.0;0.0;0.0;0.0;0.0,,,,,0.0,0.10201617209859701
mp-3211334,FePd4Pt,Fe1 Pd4 Pt1,,-0.16434335833333102,Orthorhombic,Cmmm,Fe;Pd;Pt,88.07619905590524,5.3331012,,6,4,FM,3.5;0.30000000000000004;0.30000000000000004;0.4;0.4;0.4,,,,,0.0,0.060550991722688005
mp-561325,Na3Mn4(TeO6)2,Na3 Mn4 Te2 O12,,-1.911197550437875,Orthorhombic,Pnma,Mn;Na;O;Te,1008.5327804801778,75.9969335,,16,2,FM,0.0;0.0;0.0;0.0;0.0;0.0;0.0;0.0;0.0;0.0;0.0;0.0;4.6;4.6;4.4;4.6;4.4;4.6;4.4;4.6;4.4;4.6;4.4;4.4;4.6;4.4;4.6;4.4;0.0;0.0;0.0;0.0;0.0;0.0;0.0;0.0;0.0;0.0;0.0;0.0;0.0;0.0;0.0;0.0;0.0;0.0;0.0;0.0;0.0;0.0;0.0;0.0;0.0;0.0;0.0;0.0;0.0;0.0;0.0;0.0;0.0;0.0;0.0;0.0;0.0;0.0;0.0;0.0;0.0;0.0;0.0;0.0;0.0;0.0;0.0;0.0;0.0;0.0;0.0;0.0;0.0;0.0;0.0;0.0,,,,,0.0,0.07535395474584
mp-757832,KMn6O12,K1 Mn6 O12,,-2.119852601612977,Tetragonal,I4/m,K;Mn;O,415.46661776680827,37.9919654,,12,2,FM,0.0;0.0;3.1;3.1;3.1;3.1;3.1;3.1;3.1;3.1;3.1;3.1;3.1;3.1;0.0;0.0;0.0;0.0;0.0;0.0;0.0;0.0;0.0;0.0;0.0;0.0;0.0;0.0;0.0;0.0;0.0;0.0;0.0;0.0;0.0;0.0;0.0;0.0,,,,,0.0,0.091444086661431