ID,pretty_formula,compound,energy_cell,energy_atom,lattice_system,spacegroup,species,volume_cell,moment_cell,mag_field,mag_sites_MP,mag_sites,mag_type,magmom,comment1,icsd_ids,doi,comment2,e_above_hull,magnetization_norm_vol
mp-557596,Na2TiFe5(Si3O10)2,Na2 Ti1 Fe5 Si6 O20,,-2.705201170326233,Triclinic,P-1,Fe;Na;O;Si;Ti,775.5828349938213,39.9998088,,10,6,FM,0.0;0.0;0.0;0.0;0.0;0.0;3.8;3.8;3.8;3.8;3.8;3.8;3.8;3.8;3.8;3.8;0.0;0.0;0.0;0.0;0.0;0.0;0.0;0.0;0.0;0.0;0.0;0.0;0.0;0.0;0.0;0.0;0.0;0.0;0.0;0.0;0.0;0.0;0.0;0.0;0.0;0.0;0.0;0.0;0.0;0.0;0.0;0.0;0.0;0.0;0.0;0.0;0.0;0.0;0.0;0.0;0.0;0.0;0.0;0.0;0.0;0.0;0.0;0.0;0.0;0.0;0.0;0.0,,,,,0.0,0.051573870636678
mp-1097025,GaFe2BO5,Ga1 Fe2 B1 O5,,-2.125574479074073,Orthorhombic,Pbam,B;Fe;Ga;O,367.2565819441348,31.9996768,,8,3,FM,0.0;0.0;0.0;0.0;3.8;3.8;3.8;3.8;3.8;3.8;3.8;3.8;0.0;0.0;0.0;0.0;0.0;0.0;0.0;0.0;0.0;0.0;0.0;0.0;0.0;0.0;0.0;0.0;0.0;0.0;0.0;0.0;0.0;0.0;0.0;0.0,,,,,0.0,0.08713166318382701
mp-755041,Tm2Mn2O7,Tm2 Mn2 O7,,-3.039835301837774,Cubic,Fd-3m,Mn;O;Tm,235.35325277486248,12.0000005,,8,2,FM,0.1;0.1;0.1;0.1;2.9;2.9;2.9;2.9;-0.0;-0.0;-0.0;-0.0;-0.0;-0.0;-0.0;-0.0;-0.0;-0.0;-0.0;-0.0;-0.0;-0.0,,,,,0.0,0.050987187806064004
mp-10884,AlFeCo2,Al1 Fe1 Co2,,-0.40872696749999904,Cubic,Fm-3m,Al;Co;Fe,45.19279476525925,4.9954475,,3,2,FM,0.0;2.9;1.2;1.2,,,,,0.0,0.11053637036495201
mp-27807,Mn2O2F9,Mn2 O2 F9,,-2.006153559535809,Monoclinic,C2/c,F;Mn;O,643.7735026321409,28.0000001,,16,4,FM,2.7;2.7;2.7;2.7;2.7;2.7;2.7;2.7;0.5;0.5;0.5;0.5;0.5;0.5;0.5;0.5;0.0;0.0;0.0;0.0;0.0;0.0;0.0;0.0;0.0;0.0;0.0;0.0;0.0;0.0;0.0;0.0;0.0;0.0;0.0;0.0;0.0;0.0;0.0;0.0;0.0;0.0;0.0;0.0;0.0;0.0;0.0;0.0;0.0;0.0;0.0;0.0,,,,,0.0,0.043493557882576
mp-3213196,RbTiCr9Se16,Rb1 Ti1 Cr9 Se16,,-0.947551168996914,Triclinic,P1,Cr;Rb;Se;Ti,614.112656865896,26.9999795,,10,10,FM,0.0;0.2;3.1;3.1;3.1;3.1;3.1;3.1;3.1;3.1;3.1;0.0;0.0;0.0;0.0;0.0;0.0;0.0;0.0;0.0;0.0;0.0;0.0;0.0;0.0;0.0;0.0,,,,,0.0,0.043965841117479004
mp-3207614,RbMnCrF6,Rb1 Mn1 Cr1 F6,,-3.049208665636973,Orthorhombic,Imma,Cr;F;Mn;Rb,284.08256142357425,15.9999336,,4,2,FM,0.0;0.0;4.6;4.6;2.9;2.9;0.0;0.0;0.0;0.0;0.0;0.0;0.0;0.0;0.0;0.0;0.0;0.0,,,,,0.0,0.05632142120875801
mp-770423,Mg2Mn3O8,Mg2 Mn3 O8,,-2.388223160265253,Orthorhombic,Pmn2_1,Mg;Mn;O,263.01723725582224,17.9999998,,6,2,FM,0.0;0.0;0.0;0.0;2.8;2.8;2.8;2.8;2.8;2.8;0.0;0.0;0.0;0.0;0.0;0.0;0.0;0.0;0.0;0.0;0.0;0.0;0.0;0.0;0.0;0.0,,,,,0.0,0.068436578483608
mp-1205624,GdFe2SiC,Gd1 Fe2 Si1 C1,,-0.472032237,Orthorhombic,Cmcm,C;Fe;Gd;Si,131.68128895651202,15.8769905,,6,2,FM,6.9;6.9;0.5;0.5;0.5;0.5;0.0;0.0;0.0;0.0,,,,,0.0,0.120571347879526
mp-3202422,AlFe(NiPt2)2,Al1 Fe1 Ni2 Pt4,,-0.525156649999999,Tetragonal,P4/mmm,Al;Fe;Ni;Pt,108.31954142240347,6.1937704,,7,4,FM,0.0;3.5;0.8;0.9;0.30000000000000004;0.30000000000000004;0.30000000000000004;0.30000000000000004,,,,,0.0,0.05718054488291
mp-3206248,NiOs2F12,Ni1 Os2 F12,,-1.9607146320000002,Triclinic,P-1,F;Ni;Os,195.62902007158738,7.9999344,,3,2,FM,1.8;2.2;2.2;0.0;0.0;0.0;0.0;0.0;0.0;0.0;0.0;0.0;0.0;0.0;0.0,,,,,0.0,0.040893393000039004
mp-22802,PrMn2O5,Pr1 Mn2 O5,,-2.706763244297773,Orthorhombic,Pbam,Mn;O;Pr,375.3362593184159,28.0000007,,8,2,FM,0.0;0.0;0.0;0.0;3.6;3.6;3.6;3.6;3.0;3.0;3.0;3.0;0.0;0.0;0.0;0.0;0.0;0.0;0.0;0.0;0.0;0.0;0.0;0.0;0.0;0.0;0.0;0.0;0.0;0.0;0.0;0.0,,,,,0.0,0.07459977554752101
mp-23597,Sr4Mn3(ClO4)2,Sr4 Mn3 Cl2 O8,,-2.680373587555782,Tetragonal,I4/mmm,Cl;Mn;O;Sr,240.84664826721277,11.0000002,,3,2,FM,0.0;0.0;0.0;0.0;3.3;3.5;3.5;0.0;0.0;0.0;0.0;0.0;0.0;0.0;0.0;0.0;0.0,,,,,0.0,0.045672216238590004
mp-652399,Li(FeGe)6,Li1 Fe6 Ge6,,-0.087765025641027,Hexagonal,P6/mmm,Fe;Ge;Li,529.518426202384,38.1155435,,18,2,FM,0.0;0.0;0.0;2.3;2.3;2.3;2.3;2.3;2.3;2.3;2.3;2.3;2.3;2.3;2.3;2.3;2.3;2.3;2.3;2.3;2.3;0.0;0.0;0.0;0.0;0.0;0.0;0.0;0.0;0.0;0.0;0.0;0.0;0.0;0.0;0.0;0.0;0.0;0.0,,,,,0.004224762852564,0.071981524369903
mp-3215141,K2MnCrF7,K2 Mn1 Cr1 F7,,-3.08647682518025,Orthorhombic,Imma,Cr;F;K;Mn,324.9823277675817,16.0000085,,4,2,FM,0.0;0.0;0.0;0.0;4.6;4.6;2.9;2.9;0.0;0.0;0.0;0.0;0.0;0.0;0.0;0.0;0.0;0.0;0.0;0.0;0.0;0.0,,,,,0.0,0.049233472508827
mp-12079,K(CoS)2,K1 Co2 S2,,-0.7382152358749999,Tetragonal,I4/mmm,Co;K;S,92.13201901773023,4.999617,,4,2,FM,0.0;2.2;2.2;0.2;0.2,,,,,0.0,0.054265792211042004
mp-16334,Fe3PdN,Fe3 Pd1 N1,,-0.15878041774999702,Cubic,Pm-3m,Fe;N;Pd,57.07663224909501,8.8165258,,4,2,FM,2.9;2.9;2.9;0.30000000000000004;0.0,,,,,0.0,0.154468220225796
mp-1009133,MnCo,Mn1 Co1,,-0.013308018965517001,Cubic,Pm-3m,Co;Mn,23.236958854656006,4.0277908,,2,2,FM,2.8;1.2,,,,,0.0,0.173335539525343
mp-556871,Na3Fe2P2O8F3,Na3 Fe2 P2 O8 F3,,-2.570426372481869,Tetragonal,P4_2/mbc,F;Fe;Na;O;P,1812.1471705563204,79.9988433,,16,2,FM,0.0;0.0;0.0;0.0;0.0;0.0;0.0;0.0;0.0;0.0;0.0;0.0;0.0;0.0;0.0;0.0;0.0;0.0;0.0;0.0;0.0;0.0;0.0;0.0;4.4;4.4;4.4;4.4;4.4;4.4;4.4;4.4;4.4;4.4;4.4;4.4;4.4;4.4;4.4;4.4;0.0;0.0;0.0;0.0;0.0;0.0;0.0;0.0;0.0;0.0;0.0;0.0;0.0;0.0;0.0;0.0;0.0;0.0;0.0;0.0;0.0;0.0;0.0;0.0;0.0;0.0;0.0;0.0;0.0;0.0;0.0;0.0;0.0;0.0;0.0;0.0;0.0;0.0;0.0;0.0;0.0;0.0;0.0;0.0;0.0;0.0;0.0;0.0;0.0;0.0;0.0;0.0;0.0;0.0;0.0;0.0;0.0;0.0;0.0;0.0;0.0;0.0;0.0;0.0;0.0;0.0;0.0;0.0;0.0;0.0;0.0;0.0;0.0;0.0;0.0;0.0;0.0;0.0;0.0;0.0;0.0;0.0;0.0;0.0;0.0;0.0;0.0;0.0;0.0;0.0;0.0;0.0;0.0;0.0;0.0;0.0;0.0;0.0;0.0;0.0;0.0;0.0;0.0;0.0,,,,,0.0,0.044145886493005
mp-19142,Mn2V2O7,Mn2 V2 O7,,-2.433546259110501,Monoclinic,C2/m,Mn;O;V,136.27935633163042,9.9999997,,4,3,FM,4.3;4.3;0.5;0.5;0.0;0.0;0.0;0.0;0.0;0.0;0.0,,,,,0.0,0.073378683090235
mp-3207395,Co2Hg2OF6,Co2 Hg2 O1 F6,,-1.756165329886365,Cubic,Fd-3m,Co;F;Hg;O,286.1435829455474,12.2744459,,4,4,FM,2.8;2.8;2.8;2.8;0.0;0.0;0.0;0.0;0.0;0.0;0.0;0.0;0.0;0.0;0.0;0.0;0.0;0.0;0.0;0.0;0.0;0.0,,,,,0.0,0.042896107519335
mp-18525,TbMn2O5,Tb1 Mn2 O5,,-2.77918664158944,Orthorhombic,Pbam,Mn;O;Tb,350.9675580857557,27.9999999,,8,2,FM,0.0;0.0;0.0;0.0;3.6;3.6;3.6;3.6;3.0;3.0;3.0;3.0;0.0;0.0;0.0;0.0;0.0;0.0;0.0;0.0;0.0;0.0;0.0;0.0;0.0;0.0;0.0;0.0;0.0;0.0;0.0;0.0,,,,,0.0,0.079779453271172
mp-530177,Li5Mn7O16,Li5 Mn7 O16,,-2.212582232489737,Orthorhombic,Pnnm,Li;Mn;O,530.0250331855946,40.0086139,,14,3,FM,0.0;0.0;0.0;0.0;0.0;0.0;0.0;0.0;0.0;0.0;2.8;2.4;2.8;2.8;2.8;2.8;2.4;2.8;2.8;2.8;2.8;2.8;2.8;2.8;0.0;0.0;0.0;0.0;0.0;0.0;0.0;0.0;0.0;0.0;0.0;0.0;0.0;0.0;0.0;0.0;0.0;0.0;0.0;0.0;0.0;0.0;0.0;0.0;0.0;0.0;0.0;0.0;0.0;0.0;0.0;0.0,,,,,0.0,0.075484385444093
mp-1215063,Ba6Gd2Fe4O15,Ba6 Gd2 Fe4 O15,,-2.704474228333334,Monoclinic,P2/c,Ba;Fe;Gd;O,920.2974177583552,68.0000023,,14,11,FM,0.0;0.0;0.0;0.0;0.0;0.0;0.0;0.0;0.0;0.0;0.0;0.0;7.0;7.0;7.0;7.0;4.2;4.2;4.2;4.2;4.2;4.2;4.2;4.2;0.2;0.2;0.0;0.0;0.0;0.0;0.0;0.0;0.0;0.0;0.0;0.0;0.0;0.0;0.0;0.0;0.0;0.0;0.0;0.0;0.0;0.0;0.0;0.0;0.0;0.0;0.0;0.0;0.0;0.0,,,,,0.0,0.073889159078195
mp-1223595,KCr12Si8ClO28,K1 Cr12 Si8 Cl1 O28,,-2.624491959345,Tetragonal,I4mm,Cl;Cr;K;O;Si,734.3880586063057,47.9984053,,12,3,FM,0.0;3.8;3.8;3.8;3.8;3.8;3.8;3.8;3.8;3.8;3.8;3.8;3.8;0.0;0.0;0.0;0.0;0.0;0.0;0.0;0.0;0.0;0.0;0.0;0.0;0.0;0.0;0.0;0.0;0.0;0.0;0.0;0.0;0.0;0.0;0.0;0.0;0.0;0.0;0.0;0.0;0.0;0.0;0.0;0.0;0.0;0.0;0.0;0.0;0.0,,,,,0.0,0.065358368423214
mp-1104485,Y(GaFe)6,Y1 Ga6 Fe6,,-0.317431498076922,Orthorhombic,Immm,Fe;Ga;Y,187.3279253936592,11.1319041,,6,2,FM,0.0;0.0;0.0;0.0;0.0;0.0;0.0;2.0;2.0;2.0;2.0;2.0;2.0,,,,,0.0,0.059424691095077004
mp-510450,Fe7(AsO4)6,Fe7 As6 O24,,-1.4585424539189171,Triclinic,P-1,As;Fe;O,451.2508613083494,31.9999998,,7,4,FM,4.1;4.1;3.9;3.9;4.0;4.0;3.9;0.0;0.0;0.0;0.0;0.0;0.0;0.0;0.0;0.0;0.0;0.0;0.0;0.0;0.0;0.0;0.0;0.0;0.0;0.0;0.0;0.0;0.0;0.0;0.0;0.0;0.0;0.0;0.0;0.0;0.0,,,,,0.002625392257547,0.07091399162589901
mp-31761,NbFeO4,Nb1 Fe1 O4,,-2.288398904999999,Monoclinic,C2/m,Fe;Nb;O,155.77976990612953,10.0000001,,4,10,FM,0.0;0.0;4.2;4.2;0.30000000000000004;0.30000000000000004;0.0;0.0;0.0;0.0;0.0;0.0,,,,,0.0,0.064193188281288
mp-1213320,Eu2Ni7P4,Eu2 Ni7 P4,,-0.7574772968131851,Orthorhombic,Pmn2_1,Eu;Ni;P,363.13300941275475,27.7990664,,8,9,FM,6.6;6.6;6.7;6.7;0.0;0.0;0.0;0.0;0.0;0.0;0.1;0.1;0.1;0.1;0.0;0.0;0.0;0.0;0.0;0.0;0.0;0.0;0.0;0.0;0.0;0.0,,,,,0.0,0.07655339966189101
mp-22398,FeF3,Fe1 F3,,-2.5470300962500003,Trigonal,R-3c,F;Fe,98.25704624481654,10.0000003,,2,2,FM,4.3;4.3;0.0;0.0;0.0;0.0;0.0;0.0,,,,,0.0,0.10177387456858801
mp-1078634,LaFeO3,La1 Fe1 O3,,-2.735823011249999,Trigonal,R-3c,Fe;La;O,115.45061726760383,6.0000002,,2,2,FM,0.0;0.0;3.9;1.4;0.0;0.0;0.0;0.0;0.0;0.0,,,,,0.0,0.051970273888554006
mp-3202438,ScCrH6Ru,Sc1 Cr1 H6 Ru1,,-0.3481659825,Cubic,F-43m,Cr;H;Ru;Sc,72.93757790555578,4.9999635,,3,3,FM,0.30000000000000004;4.0;0.0;0.0;0.0;0.0;0.0;0.0;0.30000000000000004,,,,,0.0,0.068551268681752
mp-1197208,Sr9Mn5Co2O21,Sr9 Mn5 Co2 O21,,-2.530038271071761,Trigonal,R-3c,Co;Mn;O;Sr,993.5388030506507,42.0006261,,14,4,FM,0.0;0.0;0.0;0.0;0.0;0.0;0.0;0.0;0.0;0.0;0.0;0.0;0.0;0.0;0.0;0.0;0.0;0.0;3.0;3.0;3.0;3.0;3.0;3.0;3.0;3.0;3.0;3.0;2.7;2.7;2.7;2.7;0.0;0.0;0.0;0.0;0.0;0.0;0.0;0.0;0.0;0.0;0.0;0.0;0.0;0.0;0.0;0.0;0.0;0.0;0.0;0.0;0.0;0.0;0.0;0.0;0.0;0.0;0.0;0.0;0.0;0.0;0.0;0.0;0.0;0.0;0.0;0.0;0.0;0.0;0.0;0.0;0.0;0.0,,,,,0.0,0.042273765222895006
mp-541814,RbCoF3,Rb1 Co1 F3,,-2.6213023615,Hexagonal,P6_3/mmc,Co;F;Rb,461.0001393651109,18.0000018,,6,2,FM,0.0;0.0;0.0;0.0;0.0;0.0;2.8;2.8;2.8;2.8;2.8;2.8;0.0;0.0;0.0;0.0;0.0;0.0;0.0;0.0;0.0;0.0;0.0;0.0;0.0;0.0;0.0;0.0;0.0;0.0,,,,,0.0,0.039045545246015
mp-2490654,MnV2O6,Mn1 V2 O6,,-2.333588346992338,Monoclinic,C2/m,Mn;O;V,254.34244461182925,9.9999999,,3,2,FM,4.6;0.0;0.0;0.0;0.0;0.0;0.0;0.2;0.2,,,,,0.0,0.03931707079116
mp-1224755,Fe2AsO4F,Fe2 As1 O4 F1,,-1.884080579375,Monoclinic,Cc,As;F;Fe;O,413.9290067911999,31.9996827,,8,4,FM,3.8;3.8;3.8;3.8;3.8;3.8;3.8;3.8;0.0;0.0;0.0;0.0;0.0;0.0;0.0;0.0;0.0;0.0;0.0;0.0;0.0;0.0;0.0;0.0;0.0;0.0;0.0;0.0;0.0;0.0;0.0;0.0,,,,,0.0,0.07730717629108201
mp-570073,Np(NiGe)2,Np1 Ni2 Ge2,,-0.537845333749999,Tetragonal,I4/mmm,Ge;Ni;Np,80.23861518168742,4.0660352,,3,2,FM,3.7;0.1;0.1;0.0;0.0,,,,,0.0,0.050674294300731004
mp-770722,Mg3Mn5(BO4)4,Mg3 Mn5 B4 O16,,-2.585630404332922,Triclinic,P1,B;Mg;Mn;O,288.53215188167604,21.0022896,,5,5,FM,0.0;0.0;0.0;4.6;4.0;3.9;3.9;4.0;0.0;0.0;0.0;0.0;0.0;0.0;0.0;0.0;0.0;0.0;0.0;0.0;0.0;0.0;0.0;0.0;0.0;0.0;0.0;0.0,,,,,0.0,0.072790118754643
mp-3212644,Mn2CrPd8Au5,Mn2 Cr1 Pd8 Au5,,-0.290026923060342,Orthorhombic,Immm,Au;Cr;Mn;Pd,251.7745476019624,13.233153,,3,3,FM,4.3;4.2;3.6;0.0;0.0;0.0;0.0;0.0;0.0;0.0;0.0;0.0;0.0;0.0;0.0;0.0,,,,,0.0,0.052559534416960006
mp-558892,MnVBiO5,Mn1 V1 Bi1 O5,,-2.14577806036638,Triclinic,P-1,Bi;Mn;O;V,237.7521241291062,9.9990066,,4,2,FM,4.6;4.6;0.2;0.2;0.0;0.0;0.0;0.0;0.0;0.0;0.0;0.0;0.0;0.0;0.0;0.0,,,,,0.0,0.042056434349962
mp-1202364,MnSeO3,Mn1 Se1 O3,,-1.389711140459051,Monoclinic,P2_1/c,Mn;O;Se,571.6395348681684,39.9999997,,8,2,FM,4.5;4.5;4.5;4.5;4.5;4.5;4.5;4.5;0.0;0.0;0.0;0.0;0.0;0.0;0.0;0.0;0.0;0.0;0.0;0.0;0.0;0.0;0.0;0.0;0.0;0.0;0.0;0.0;0.0;0.0;0.0;0.0;0.0;0.0;0.0;0.0;0.0;0.0;0.0;0.0,,,,,0.07519492334375301,0.069974165991204
mp-2756361,Na2Fe2F7,Na2 Fe2 F7,,-2.715061876818181,Orthorhombic,Imma,F;Fe;Na,279.1709124008701,18.0,,4,4,FM,0.0;0.0;0.0;0.0;4.0;4.0;4.1;4.1;0.0;0.0;0.0;0.0;0.0;0.0;0.0;0.0;0.0;0.0;0.0;0.0;0.0;0.0,,,,,0.0,0.064476631340994
mp-555618,Na2MnF5,Na2 Mn1 F5,,-2.969697501810344,Monoclinic,P2_1/c,F;Mn;Na,404.98538556957504,15.9999997,,4,2,FM,0.0;0.0;0.0;0.0;0.0;0.0;0.0;0.0;3.7;3.7;3.7;3.7;0.0;0.0;0.0;0.0;0.0;0.0;0.0;0.0;0.0;0.0;0.0;0.0;0.0;0.0;0.0;0.0;0.0;0.0;0.0;0.0,,,,,0.0,0.039507597730958
mp-22632,Co3(BO3)2,Co3 B2 O6,,-1.791613595681818,Orthorhombic,Pnnm,B;Co;O,206.966305922912,17.999704,,6,3,FM,2.7;2.7;2.7;2.7;2.7;2.7;0.0;0.0;0.0;0.0;0.0;0.0;0.0;0.0;0.0;0.0;0.0;0.0;0.0;0.0;0.0;0.0,,,,,0.023685762083333003,0.08696924806062001
mp-19317,Yb(FeO2)2,Yb1 Fe2 O4,,-2.420447148571428,Trigonal,R-3m,Fe;O;Yb,84.36369106332408,9.0000001,,5,4,FM,0.1;3.9;3.9;0.30000000000000004;0.30000000000000004;0.0;0.0,,,,,0.0,0.10668096649830701
mp-1200007,Rb2Fe2As2O9,Rb2 Fe2 As2 O9,,-1.8716128071666662,Orthorhombic,Pnma,As;Fe;O;Rb,978.4821349866829,39.9995924,,12,9,FM,0.0;0.0;0.0;0.0;0.0;0.0;0.0;0.0;4.4;4.4;4.4;4.4;4.4;4.4;4.4;4.4;0.0;0.0;0.0;0.0;0.0;0.0;0.0;0.0;0.30000000000000004;0.30000000000000004;0.30000000000000004;0.30000000000000004;0.0;0.0;0.0;0.0;0.0;0.0;0.0;0.0;0.0;0.0;0.0;0.0;0.0;0.0;0.0;0.0;0.0;0.0;0.0;0.0;0.0;0.0;0.0;0.0;0.0;0.0;0.0;0.0;0.0;0.0;0.0;0.0,,,,,0.0,0.040879226068388
mp-504423,Mn3(CoO4)2,Mn3 Co2 O8,,-1.782825662957559,Orthorhombic,Pmn2_1,Co;Mn;O,255.4384001367044,25.9606056,,10,4,FM,2.9;2.9;2.9;2.9;3.0;3.0;0.9;0.9;2.6;2.6;0.0;0.0;0.0;0.0;0.0;0.0;0.0;0.0;0.0;0.0;0.0;0.0;0.0;0.0;0.0;0.0,,,,,0.040536614957259,0.10163156982703601
mp-3205006,Ta12Mn5Ga7N4,Ta12 Mn5 Ga7 N4,,-0.655502613407634,Trigonal,R3m,Ga;Mn;N;Ta,389.49399934125796,15.6619381,,5,3,FM,0.0;0.0;0.0;0.0;0.0;0.0;0.0;0.0;0.0;0.0;0.0;0.0;3.2;3.2;3.2;3.4;3.2;0.0;0.0;0.0;0.0;0.0;0.0;0.0;0.0;0.0;0.0;0.0,,,,,0.0,0.040210986886803
mp-1204465,Fe3P4PbO14,Fe3 P4 Pb1 O14,,-2.401629832435063,Monoclinic,P2_1/c,Fe;O;P;Pb,544.0715146698994,23.9999945,,6,2,FM,3.8;3.8;3.8;3.8;3.8;3.8;0.0;0.0;0.0;0.0;0.0;0.0;0.0;0.0;0.0;0.0;0.0;0.0;0.0;0.0;0.0;0.0;0.0;0.0;0.0;0.0;0.0;0.0;0.0;0.0;0.0;0.0;0.0;0.0;0.0;0.0;0.0;0.0;0.0;0.0;0.0;0.0;0.0;0.0,,,,,0.0,0.044111837971450005
mp-3203253,MnFe(Co2Si)2,Mn1 Fe1 Co4 Si2,,-0.49917622306034504,Trigonal,R-3m,Co;Fe;Mn;Si,87.41090818891259,11.0003736,,6,4,FM,3.3;3.0;1.2;1.3;1.3;1.2;0.0;0.0,,,,,0.0,0.12584669153906902
mp-861658,LiMnPt2,Li1 Mn1 Pt2,,-0.6973252977873551,Cubic,Fm-3m,Li;Mn;Pt,55.67522050122987,4.5844638,,3,2,FM,0.0;4.0;0.30000000000000004;0.30000000000000004,,,,,0.006743148333331001,0.082342984162922
mp-1094074,ScFe2BO5,Sc1 Fe2 B1 O5,,-2.585870041851852,Orthorhombic,Pbam,B;Fe;O;Sc,390.1477252989854,32.0005342,,8,3,FM,0.0;0.0;0.0;0.0;3.8;3.8;3.8;3.8;3.8;3.8;3.8;3.8;0.0;0.0;0.0;0.0;0.0;0.0;0.0;0.0;0.0;0.0;0.0;0.0;0.0;0.0;0.0;0.0;0.0;0.0;0.0;0.0;0.0;0.0;0.0;0.0,,,,,0.0,0.082021583428371
mp-3208955,Fe10SiB4P,Fe10 Si1 B4 P1,,-0.28037751768601404,Tetragonal,I422,B;Fe;P;Si,155.8589610985047,22.4357839,,10,3,FM,2.6;2.3;2.3;2.3;2.3;2.3;2.3;2.3;2.6;2.3;0.0;0.0;0.0;0.0;0.0;0.0,,,,,0.0,0.14394927145587902
mp-2090,FeCo,Fe1 Co1,,-0.21606999000000102,Cubic,Pm-3m,Co;Fe,22.88274681661618,4.8366533,,2,2,FM,3.1;1.9,,,,,0.0,0.21136681442840902
mp-1185981,Mn2IrRh,Mn2 Ir1 Rh1,,-0.48382572224137704,Cubic,Fm-3m,Ir;Mn;Rh,55.54201042366567,8.1340832,,4,3,FM,3.7;3.7;0.2;0.5,,,,,0.0,0.14644920372803302
mp-3210382,Nb12Co12CN,Nb12 Co12 C1 N1,,-0.25210046687500104,Cubic,F-43m,C;Co;N;Nb,352.9340839332908,16.7950363,,12,3,FM,0.0;0.0;0.0;0.0;0.0;0.0;0.0;0.0;0.0;0.0;0.0;0.0;1.5;1.5;1.5;1.5;1.5;1.5;1.5;1.5;1.6;1.6;1.6;1.6;0.0;0.0,,,,,0.0,0.047586892466794005
mp-760680,Li2Fe12P7,Li2 Fe12 P7,,-0.35963298043650704,Hexagonal,P-6,Fe;Li;P,248.65572348171958,21.1494557,,12,4,FM,0.0;0.0;0.5;1.9;0.5;1.9;1.9;2.6;0.5;2.4;2.4;2.6;2.4;2.6;0.0;0.0;0.0;0.0;0.0;0.0;0.0,,,,,0.011911378551587,0.085055173489923
mp-3213947,CsCoMoF6,Cs1 Co1 Mo1 F6,,-2.596191594444443,Orthorhombic,Imma,Co;Cs;F;Mo,302.33165795085574,11.9996148,,4,2,FM,0.0;0.0;2.8;2.8;2.6;2.6;0.0;0.0;0.0;0.0;0.0;0.0;0.0;0.0;0.0;0.0;0.0;0.0,,,,,0.0,0.039690235820261
mp-22244,GdCrO4,Gd1 Cr1 O4,,-2.796720029166666,Tetragonal,I4_1/amd,Cr;Gd;O,163.29809858005478,16.0000006,,4,2,FM,6.9;6.9;1.3;1.3;-0.0;-0.0;-0.0;-0.0;-0.0;-0.0;-0.0;-0.0,,,,,0.0,0.09798032395433001
mp-1207117,Fe2CoSi,Fe2 Co1 Si1,,-0.31889919374999903,Cubic,F-43m,Co;Fe;Si,42.952160954325194,5.0944857,,3,3,FM,2.8;1.5;1.1;0.0,,,,,0.008020390833333,0.11860836770046101
mp-1221565,MnTlCuSe2,Mn1 Tl1 Cu1 Se2,,-0.5378635011903741,Tetragonal,I-4m2,Cu;Mn;Se;Tl,115.94523695880339,4.9985405,,2,2,FM,4.1;0.0;0.1;0.0;0.0,,,,,0.0,0.043111218978111
mp-19770,Fe2O3,Fe2 O3,,-1.545158817250001,Trigonal,R-3c,Fe;O,103.1107530196113,19.9980745,,10,3,FM,4.2;4.2;4.2;4.2;0.4;0.4;0.4;0.4;0.4;0.4,,,,,0.0,0.193947516765748
mp-691115,Li4Mn5O12,Li4 Mn5 O12,,-2.214085599480022,Monoclinic,C2/c,Li;Mn;O,397.4633364794207,30.0000017,,10,3,FM,0.0;0.0;0.0;0.0;0.0;0.0;0.0;0.0;2.8;2.8;2.8;2.9;2.8;2.8;2.8;2.8;2.8;2.9;0.0;0.0;0.0;0.0;0.0;0.0;0.0;0.0;0.0;0.0;0.0;0.0;0.0;0.0;0.0;0.0;0.0;0.0;0.0;0.0;0.0;0.0;0.0;0.0,,,,,0.0,0.07547866418505
mp-1195207,BaYFeO4,Ba1 Y1 Fe1 O4,,-2.910201128392857,Orthorhombic,Pnma,Ba;Fe;O;Y,798.7029030270551,40.0191037,,12,7,FM,0.0;0.0;0.0;0.0;0.0;0.0;0.0;0.0;0.0;0.0;0.0;0.0;0.0;0.0;0.0;0.0;4.3;4.3;4.3;4.3;4.3;4.3;4.3;4.3;0.2;0.2;0.2;0.2;0.0;0.0;0.0;0.0;0.0;0.0;0.0;0.0;0.0;0.0;0.0;0.0;0.0;0.0;0.0;0.0;0.0;0.0;0.0;0.0;0.0;0.0;0.0;0.0;0.0;0.0;0.0;0.0,,,,,0.0,0.050105118622117
mp-865187,MgFeRh2,Mg1 Fe1 Rh2,,-0.39081982875000004,Cubic,Fm-3m,Fe;Mg;Rh,55.51817430984302,4.3989436,,3,2,FM,0.0;3.4;0.6000000000000001;0.6000000000000001,,,,,0.0,0.079234298582114
mp-3214881,Lu3ScMn4O14,Lu3 Sc1 Mn4 O14,,-3.012820820246865,Trigonal,R-3m,Lu;Mn;O;Sc,228.9706009262228,12.0000161,,4,2,FM,0.0;0.0;0.0;0.0;2.9;2.9;2.9;2.9;0.0;0.0;0.0;0.0;0.0;0.0;0.0;0.0;0.0;0.0;0.0;0.0;0.0;0.0,,,,,0.0,0.052408545251914004
mp-505076,GaNi2BO5,Ga1 Ni2 B1 O5,,-1.866148897083333,Orthorhombic,Pbam,B;Ga;Ni;O,332.31596894642564,16.0000014,,8,3,FM,0.0;0.0;0.0;0.0;1.7000000000000002;1.7000000000000002;1.7000000000000002;1.7000000000000002;1.7000000000000002;1.7000000000000002;1.7000000000000002;1.7000000000000002;0.0;0.0;0.0;0.0;0.0;0.0;0.0;0.0;0.0;0.0;0.0;0.0;0.0;0.0;0.0;0.0;0.0;0.0;0.0;0.0;0.0;0.0;0.0;0.0,,,,,0.0,0.048146953186530006
mp-1225227,Fe3Co3Si2,Fe3 Co3 Si2,,-0.39090990625000005,Trigonal,R3m,Co;Fe;Si,86.69779519486825,11.0035641,,6,6,FM,1.7000000000000002;3.0;2.9;1.3;1.2;1.3;0.0;0.0,,,,,0.0,0.12691861511896102
mp-757614,LiFeO2,Li1 Fe1 O2,,-1.881924319791667,Orthorhombic,Pmmn,Fe;Li;O,72.09991707995987,9.9999961,,6,3,FM,0.0;0.0;4.1;4.1;0.4;0.30000000000000004;0.30000000000000004;0.4,,,,,0.019357384374998003,0.13869636062008
mp-3212327,K2Cr2SnO6,K2 Cr2 Sn1 O6,,-2.117527981818179,Monoclinic,C2/m,Cr;K;O;Sn,452.2091720586063,17.9998584,,6,2,FM,0.0;0.0;0.0;0.0;0.0;0.0;2.9;2.9;2.9;2.9;2.9;2.9;0.0;0.0;0.0;0.0;0.0;0.0;0.0;0.0;0.0;0.0;0.0;0.0;0.0;0.0;0.0;0.0;0.0;0.0;0.0;0.0;0.0,,,,,0.0,0.039804275349079
mp-20038,Eu(CoP)2,Eu1 Co2 P2,,-0.908267926190475,Tetragonal,I4/mmm,Co;Eu;P,77.71902169450235,8.2366434,,3,2,FM,6.7;0.6000000000000001;0.6000000000000001;0.0;0.0,,,,,0.0,0.105979761716205
mp-3208628,Mn4Cu2SiPd9,Mn4 Cu2 Si1 Pd9,,-0.506636812683186,Tetragonal,I4/mmm,Cu;Mn;Pd;Si,228.48705440761086,18.5792922,,7,4,FM,4.2;4.2;4.2;4.2;0.1;0.1;0.0;0.0;0.0;0.0;0.0;0.0;0.0;0.0;0.0;0.2,,,,,0.0,0.081314419533175
mp-13463,FeNiPt2,Fe1 Ni1 Pt2,,-0.30905346499999803,Tetragonal,P4/mmm,Fe;Ni;Pt,54.17037525866971,5.1910644,,4,3,FM,3.5;1.0;0.4;0.4,,,,,0.0,0.09582847405453701
mp-1227543,CaNd2Mn3O9,Ca1 Nd2 Mn3 O9,,-2.825481245252874,Orthorhombic,Pnma,Ca;Mn;Nd;O,708.4734281956097,44.0428985,,12,2,FM,0.0;0.0;0.0;0.0;0.0;0.0;0.0;0.0;0.0;0.0;0.0;0.0;3.7;3.7;3.8;3.8;3.7;3.7;3.7;3.7;3.8;3.7;3.8;3.7;0.0;0.0;0.0;0.0;0.0;0.0;0.0;0.0;0.0;0.0;0.0;0.0;0.0;0.0;0.0;0.0;0.0;0.0;0.0;0.0;0.0;0.0;0.0;0.0;0.0;0.0;0.0;0.0;0.0;0.0;0.0;0.0;0.0;0.0;0.0;0.0,,,,,0.0,0.062165914411457
mp-1195892,RbFe2F6,Rb1 Fe2 F6,,-2.682503172638889,Orthorhombic,Pnma,F;Fe;Rb,519.143169303519,36.0000005,,8,2,FM,0.0;0.0;0.0;0.0;4.0;4.0;4.0;4.0;4.1;4.1;4.1;4.1;0.0;0.0;0.0;0.0;0.0;0.0;0.0;0.0;0.0;0.0;0.0;0.0;0.0;0.0;0.0;0.0;0.0;0.0;0.0;0.0;0.0;0.0;0.0;0.0,,,,,0.0,0.069345033564242
mp-3206615,Mn4Ga4Co5Ni3,Mn4 Ga4 Co5 Ni3,,-0.37401419549568904,Tetragonal,P-42m,Co;Ga;Mn;Ni,187.35812339355164,19.2370485,,12,9,FM,3.3;3.3;3.3;3.3;0.0;0.0;0.0;0.0;1.0;1.1;1.1;1.1;1.0;0.5;0.5;0.5,,,,,0.0,0.10267528384446901
mp-3210800,KSrFeO3,K1 Sr1 Fe1 O3,,-2.171524280833333,Orthorhombic,Cmce,Fe;K;O;Sr,389.5979002830414,19.9999356,,16,4,FM,0.0;0.0;0.0;0.0;0.0;0.0;0.0;0.0;3.9;3.9;3.9;3.9;0.30000000000000004;0.30000000000000004;0.30000000000000004;0.30000000000000004;0.2;0.2;0.2;0.30000000000000004;0.30000000000000004;0.30000000000000004;0.30000000000000004;0.2,,,,,0.0,0.051334813625715
mp-2260,FePt,Fe1 Pt1,,-0.350327225,Tetragonal,P4/mmm,Fe;Pt,27.81342753558363,3.5335297,,2,2,FM,3.3;0.30000000000000004,,,,,0.0,0.12704402200984802