ID,pretty_formula,compound,energy_cell,energy_atom,lattice_system,spacegroup,species,volume_cell,moment_cell,mag_field,mag_sites_MP,mag_sites,mag_type,magmom,comment1,icsd_ids,doi,comment2,e_above_hull,magnetization_norm_vol
mp-786,MnSb,Mn1 Sb1,,-0.30358774974137803,Hexagonal,P6_3/mmc,Mn;Sb,86.47909364925499,7.4772868,,2,2,FM,3.9;3.9;0.0;0.0,,,,,0.0,0.08646351949902001
mp-31138,MnPd3,Mn1 Pd3,,-0.392696349870686,Tetragonal,I4/mmm,Mn;Pd,119.67592598642084,10.1661144,,8,4,FM,4.2;4.2;0.2;0.2;0.2;0.2;0.30000000000000004;0.30000000000000004,,,,,0.0,0.08494702937292001
mp-1224947,FeNiPt6,Fe1 Ni1 Pt6,,-0.20658194124999998,Tetragonal,P4/mmm,Fe;Ni;Pt,115.9909523387971,5.7127394,,8,5,FM,3.5;0.9;0.30000000000000004;0.2;0.2;0.2;0.2;0.2,,,,,0.012629647499998,0.04925159492883201
mp-1214629,Ba2Zn2Cr7Ga2(SnO11)2,Ba2 Zn2 Cr7 Ga2 Sn2 O22,,-2.390260479594595,Trigonal,P-3m1,Ba;Cr;Ga;O;Sn;Zn,447.13574185458316,19.9991756,,7,2,FM,0.0;0.0;0.0;0.0;2.9;2.9;2.9;2.9;2.9;2.9;3.0;0.0;0.0;0.0;0.0;0.0;0.0;0.0;0.0;0.0;0.0;0.0;0.0;0.0;0.0;0.0;0.0;0.0;0.0;0.0;0.0;0.0;0.0;0.0;0.0;0.0;0.0,,,,,0.0,0.044727302534683
mp-1224711,Gd2MnSbO7,Gd2 Mn1 Sb1 O7,,-2.914275617084638,Orthorhombic,Imma,Gd;Mn;O;Sb,282.50159594771554,36.0000002,,6,3,FM,6.9;6.9;6.9;6.9;3.9;3.9;0.0;0.0;0.0;0.0;0.0;0.0;0.0;0.0;0.0;0.0;0.0;0.0;0.0;0.0;0.0;0.0,,,,,0.0,0.127432909110583
mp-19359,NaFeO2,Na1 Fe1 O2,,-1.7675694193749991,Trigonal,R-3m,Fe;Na;O,42.09905783092161,5.0000001,,3,2,FM,0.0;4.1;0.30000000000000004;0.30000000000000004,,,,,0.0,0.11876750591618901
mp-28915,Mn3Se3O10,Mn3 Se3 O10,,-1.431551911445986,Monoclinic,C2/m,Mn;O;Se,441.59306569305187,26.0000004,,6,3,FM,4.4;4.4;4.0;4.0;3.7;3.7;0.0;0.0;0.0;0.0;0.0;0.0;0.0;0.0;0.0;0.0;0.0;0.0;0.0;0.0;0.0;0.0;0.0;0.0;0.0;0.0;0.0;0.0;0.0;0.0;0.0;0.0,,,,,0.017925805266925002,0.058877737038725
mp-1101790,CrNiP,Cr1 Ni1 P1,,-0.514590547380951,Orthorhombic,Pnma,Cr;Ni;P,140.41275625710034,10.393508,,8,2,FM,2.4;2.4;2.4;2.4;0.2;0.2;0.2;0.2;0.0;0.0;0.0;0.0,,,,,0.0,0.07402110945653001
mp-3205116,Mn4AlSnPd10,Mn4 Al1 Sn1 Pd10,,-0.6110957867456861,Monoclinic,P2/m,Al;Mn;Pd;Sn,242.82764967961683,19.0866501,,4,2,FM,4.2;4.2;4.2;4.2;0.0;0.0;0.0;0.0;0.0;0.0;0.0;0.0;0.0;0.0;0.0;0.0,,,,,0.0,0.078601634225684
mp-22290,Mn6Si7Ni16,Mn6 Si7 Ni16,,-0.5374249038585031,Cubic,Fm-3m,Mn;Ni;Si,335.6968946271092,25.7292756,,22,3,FM,3.9;3.9;3.9;3.9;3.9;3.9;0.0;0.0;0.0;0.0;0.0;0.0;0.0;0.2;0.2;0.2;0.2;0.2;0.2;0.2;0.2;0.2;0.2;0.2;0.2;0.2;0.2;0.2;0.2,,,,,0.0,0.07664436583061
mp-3201791,FePd3Pt2,Fe1 Pd3 Pt2,,-0.18740747666666302,Orthorhombic,Amm2,Fe;Pd;Pt,88.47321503131722,5.4252634,,6,6,FM,3.5;0.30000000000000004;0.4;0.4;0.4;0.5,,,,,0.0,0.06132097039855001
mp-3206093,K4MnV3F12,K4 Mn1 V3 F12,,-3.057918999974138,Triclinic,P-1,F;K;Mn;V,282.6744234073318,13.9993938,,4,4,FM,0.0;0.0;0.0;0.0;4.6;2.7;2.7;2.7;0.0;0.0;0.0;0.0;0.0;0.0;0.0;0.0;0.0;0.0;0.0;0.0,,,,,0.0,0.049524798286497
mp-18806,Ni3(BO3)2,Ni3 B2 O6,,-1.823989286590909,Orthorhombic,Pnnm,B;Ni;O,198.71368603121311,12.0000001,,6,3,FM,1.7000000000000002;1.7000000000000002;1.7000000000000002;1.7000000000000002;1.7000000000000002;1.7000000000000002;0.0;0.0;0.0;0.0;0.0;0.0;0.0;0.0;0.0;0.0;0.0;0.0;0.0;0.0;0.0;0.0,,,,,0.0,0.06038839266518901
mp-1221145,NaCr12Si8ClO28,Na1 Cr12 Si8 Cl1 O28,,-2.619514370627586,Tetragonal,I4mm,Cl;Cr;Na;O;Si,721.2204981692907,47.9979938,,12,3,FM,0.0;3.8;3.8;3.8;3.8;3.8;3.8;3.8;3.8;3.8;3.8;3.8;3.8;0.0;0.0;0.0;0.0;0.0;0.0;0.0;0.0;0.0;0.0;0.0;0.0;0.0;0.0;0.0;0.0;0.0;0.0;0.0;0.0;0.0;0.0;0.0;0.0;0.0;0.0;0.0;0.0;0.0;0.0;0.0;0.0;0.0;0.0;0.0;0.0;0.0,,,,,0.0,0.066551067144979
mp-3203642,Mn4Zn2CuPd9,Mn4 Zn2 Cu1 Pd9,,-0.523817099870687,Orthorhombic,Immm,Cu;Mn;Pd;Zn,231.21978769200865,18.2152687,,5,2,FM,4.2;4.2;4.2;4.2;0.0;0.0;0.1;0.0;0.0;0.0;0.0;0.0;0.0;0.0;0.0;0.0,,,,,0.0,0.07877902182084501
mp-19442,Mn(Ni3O4)2,Mn1 Ni6 O8,,-1.30830347429885,Cubic,Fm-3m,Mn;Ni;O,144.6642070855784,14.9999789,,9,4,FM,2.8;1.7000000000000002;1.7000000000000002;1.7000000000000002;1.7000000000000002;1.7000000000000002;1.7000000000000002;0.0;0.0;0.0;0.0;0.0;0.0;0.30000000000000004;0.30000000000000004,,,,,0.004089429999989,0.10368825297004201
mp-867216,TaFeRu2,Ta1 Fe1 Ru2,,-0.305314924333334,Cubic,Fm-3m,Fe;Ru;Ta,58.34803681530799,4.7738077,,3,2,FM,0.0;3.5;0.7000000000000001;0.7000000000000001,,,,,0.0,0.081816080892503
mp-1194843,BaMn9V6(HO13)2,Ba1 Mn9 V6 H2 O26,,-2.28748378156544,Cubic,Pa-3,Ba;H;Mn;O;V,2210.305964068448,179.9999613,,60,4,FM,0.0;0.0;0.0;0.0;4.6;4.6;4.6;4.6;4.6;4.6;4.6;4.6;4.6;4.6;4.6;4.6;4.6;4.6;4.6;4.6;4.6;4.6;4.6;4.6;4.6;4.6;4.6;4.6;4.6;4.6;4.6;4.6;4.6;4.6;4.6;4.6;4.6;4.6;4.6;4.6;0.30000000000000004;0.30000000000000004;0.30000000000000004;0.30000000000000004;0.30000000000000004;0.30000000000000004;0.30000000000000004;0.30000000000000004;0.30000000000000004;0.30000000000000004;0.30000000000000004;0.30000000000000004;0.30000000000000004;0.30000000000000004;0.30000000000000004;0.30000000000000004;0.30000000000000004;0.30000000000000004;0.30000000000000004;0.30000000000000004;0.30000000000000004;0.30000000000000004;0.30000000000000004;0.30000000000000004;0.0;0.0;0.0;0.0;0.0;0.0;0.0;0.0;0.0;0.0;0.0;0.0;0.0;0.0;0.0;0.0;0.0;0.0;0.0;0.0;0.0;0.0;0.0;0.0;0.0;0.0;0.0;0.0;0.0;0.0;0.0;0.0;0.0;0.0;0.0;0.0;0.0;0.0;0.0;0.0;0.0;0.0;0.0;0.0;0.0;0.0;0.0;0.0;0.0;0.0;0.0;0.0;0.0;0.0;0.0;0.0;0.0;0.0;0.0;0.0;0.0;0.0;0.0;0.0;0.0;0.0;0.0;0.0;0.0;0.0;0.0;0.0;0.0;0.0;0.0;0.0;0.0;0.0;0.0;0.0;0.0;0.0;0.0;0.0;0.0;0.0;0.0;0.0;0.0;0.0;0.0;0.0;0.0;0.0;0.0;0.0;0.0;0.0;0.0;0.0;0.0;0.0;0.0;0.0;0.0;0.0;0.0;0.0;0.0;0.0;0.0;0.0,,,,,0.0,0.08143667176678
mp-699691,Mn7SbAsO12,Mn7 Sb1 As1 O12,,-2.0031418089532,Orthorhombic,Imma,As;Mn;O;Sb,538.5497897822388,70.0040174,,14,4,FM,4.6;4.6;4.6;4.6;4.6;4.6;4.6;4.6;4.6;4.6;4.6;4.6;4.6;4.6;0.0;0.0;0.0;0.0;0.0;0.0;0.0;0.0;0.0;0.0;0.0;0.0;0.0;0.0;0.0;0.0;0.0;0.0;0.0;0.0;0.0;0.0;0.0;0.0;0.0;0.0;0.0;0.0,,,,,0.0,0.129986156764272
mp-1105401,NaYMnWO6,Na1 Y1 Mn1 W1 O6,,-2.673562475431033,Monoclinic,P2_1,Mn;Na;O;W;Y,248.71769205939404,9.9990905,,4,2,FM,0.0;0.0;0.0;0.0;4.6;4.6;0.1;0.1;0.0;0.0;0.0;0.0;0.0;0.0;0.0;0.0;0.0;0.0;0.0;0.0,,,,,0.0,0.040202570300516
mp-1194563,SrMn2V2O8,Sr1 Mn2 V2 O8,,-2.5306868812201593,Tetragonal,I4_1cd,Mn;O;Sr;V,705.6193015664298,40.0055355,,16,2,FM,0.0;0.0;0.0;0.0;4.6;4.6;4.6;4.6;4.6;4.6;4.6;4.6;0.2;0.2;0.2;0.2;0.2;0.2;0.2;0.2;0.0;0.0;0.0;0.0;0.0;0.0;0.0;0.0;0.0;0.0;0.0;0.0;0.0;0.0;0.0;0.0;0.0;0.0;0.0;0.0;0.0;0.0;0.0;0.0;0.0;0.0;0.0;0.0;0.0;0.0;0.0;0.0,,,,,0.0,0.056695636600629006
mp-1206288,NpSi2Ni,Np1 Si2 Ni1,,-0.7635497021875001,Orthorhombic,Cmcm,Ni;Np;Si,131.85956119810396,7.8292407,,2,2,FM,3.7;3.7;0.0;0.0;0.0;0.0;0.0;0.0,,,,,0.0,0.05937560104752201
mp-653429,Mn7FeCl3O10,Mn7 Fe1 Cl3 O10,,-1.9032996476436792,Cubic,Fm-3m,Cl;Fe;Mn;O,594.6376962754468,68.0071974,,16,4,FM,3.9;3.9;3.9;3.9;3.9;3.9;3.9;3.9;4.7;3.9;3.9;3.9;3.9;4.7;4.4;4.4;0.0;0.0;0.0;0.0;0.0;0.0;0.0;0.0;0.0;0.0;0.0;0.0;0.0;0.0;0.0;0.0;0.0;0.0;0.0;0.0;0.0;0.0;0.0;0.0;0.0;0.0,,,,,0.0,0.11436745067789601
mp-18751,Mn2ZnO4,Mn2 Zn1 O4,,-2.020803569137931,Tetragonal,I4_1/amd,Mn;O;Zn,151.3335365601834,16.0000003,,4,2,FM,3.7;3.7;3.7;3.7;0.0;0.0;0.0;0.0;0.0;0.0;0.0;0.0;0.0;0.0,,,,,0.0,0.10572673224772601
mp-1016190,KMn3O6,K1 Mn3 O6,,-2.110064835469826,Monoclinic,C2/c,K;Mn;O,576.9404426000683,40.0000003,,12,3,FM,0.0;0.0;0.0;0.0;3.7;3.7;2.9;2.9;2.9;2.9;3.7;3.7;2.9;2.9;2.9;2.9;0.0;0.0;0.0;0.0;0.0;0.0;0.0;0.0;0.0;0.0;0.0;0.0;0.0;0.0;0.0;0.0;0.0;0.0;0.0;0.0;0.0;0.0;0.0;0.0,,,,,0.006375315312491,0.069331246947664
mp-777670,Li4V3Cr3(SnO8)2,Li4 V3 Cr3 Sn2 O16,,-2.387375552976189,Triclinic,P1,Cr;Li;O;Sn;V,302.44941586185575,12.9997231,,6,6,FM,0.0;0.0;0.0;0.0;1.1;1.0;1.9;3.0;3.0;2.9;0.0;0.0;0.0;0.0;0.0;0.0;0.0;0.0;0.0;0.0;0.0;0.0;0.0;0.0;0.0;0.0;0.0;0.0,,,,,0.0,0.042981478615047
mp-976406,MgMnPt2,Mg1 Mn1 Pt2,,-0.809691114870688,Cubic,Fm-3m,Mg;Mn;Pt,60.768485268538164,4.5816276,,3,3,FM,0.0;4.1;0.2;0.2,,,,,0.0,0.07539479682196401
mp-556076,Sr2Co2O5,Sr2 Co2 O5,,-2.138443608333333,Triclinic,P1,Co;O;Sr,244.03447780719642,13.9991144,,12,14,FM,0.0;0.0;0.0;0.0;3.0;2.9;3.0;2.3;0.30000000000000004;0.30000000000000004;0.30000000000000004;0.30000000000000004;0.2;0.0;0.30000000000000004;0.0;0.30000000000000004;0.2,,,,,0.0,0.057365313810535
mp-427,FeAs,Fe1 As1,,-0.034767797499998004,Orthorhombic,Pnma,As;Fe,114.06618720487754,8.226752,,4,2,FM,2.3;2.3;2.3;2.3;0.0;0.0;0.0;0.0,,,,,0.06913329750000001,0.07212261759239501
mp-18840,BaMnO3,Ba1 Mn1 O3,,-2.5934188638132163,Trigonal,R-3m,Ba;Mn;O,196.58101951817102,8.9998148,,3,2,FM,0.0;0.0;0.0;2.8;2.8;2.8;0.0;0.0;0.0;0.0;0.0;0.0;0.0;0.0;0.0,,,,,0.0,0.045781707827433
mp-1222170,Mg3MnNi3O8,Mg3 Mn1 Ni3 O8,,-2.1006743348620702,Trigonal,R-3m,Mg;Mn;Ni;O,150.55573536852734,8.9995453,,4,2,FM,0.0;0.0;0.0;3.1;1.8;1.8;1.8;0.0;0.0;0.0;0.0;0.0;0.0;0.0;0.0,,,,,0.0,0.059775506246713
mp-865091,HfMnRh2,Hf1 Mn1 Rh2,,-0.887145171120689,Cubic,Fm-3m,Hf;Mn;Rh,62.42548941870619,4.911769,,3,2,FM,-0.0;4.1;0.4;0.4,,,,,0.0,0.078682106391754
mp-1213733,CrMoO4,Cr1 Mo1 O4,,-2.231695020833333,Orthorhombic,Cmmm,Cr;Mo;O,62.557033232231895,3.2465439,,2,2,FM,2.8;0.4;0.0;0.0;0.0;0.0,,,,,0.017756051805568003,0.051897344427248006
mp-2662,MnP,Mn1 P1,,-0.5921020612294731,Orthorhombic,Pnma,Mn;P,96.14176208646997,6.5318725,,4,2,FM,1.8;1.8;1.8;1.8;0.0;0.0;0.0;0.0,,,,,0.0,0.06794001231353701
mp-1215009,BaFe2PbO5,Ba1 Fe2 Pb1 O5,,-1.952314815277776,Orthorhombic,Pnma,Ba;Fe;O;Pb,509.5454269895005,40.0001871,,20,7,FM,0.0;0.0;0.0;0.0;4.4;4.4;4.4;4.4;4.3;4.3;4.3;4.3;0.0;0.0;0.0;0.0;0.30000000000000004;0.30000000000000004;0.30000000000000004;0.30000000000000004;0.0;0.0;0.0;0.0;0.2;0.2;0.2;0.2;0.2;0.2;0.2;0.2;0.0;0.0;0.0;0.0,,,,,0.0,0.07850170952633001
mp-561343,Fe3(TeO3)4,Fe3 Te4 O12,,-1.564010085219297,Monoclinic,P2_1/c,Fe;O;Te,1063.889725998378,55.9999458,,12,3,FM,4.4;4.4;3.8;4.4;4.4;4.4;3.8;4.4;3.8;4.4;3.8;4.4;0.0;0.0;0.0;0.0;0.0;0.0;0.0;0.0;0.0;0.0;0.0;0.0;0.0;0.0;0.0;0.0;0.0;0.0;0.0;0.0;0.0;0.0;0.0;0.0;0.0;0.0;0.0;0.0;0.0;0.0;0.0;0.0;0.0;0.0;0.0;0.0;0.0;0.0;0.0;0.0;0.0;0.0;0.0;0.0;0.0;0.0;0.0;0.0;0.0;0.0;0.0;0.0;0.0;0.0;0.0;0.0;0.0;0.0;0.0;0.0;0.0;0.0;0.0;0.0,,,,,0.0,0.052636983356003
mp-1224833,Gd2MnCoO6,Gd2 Mn1 Co1 O6,,-2.8105339522931043,Monoclinic,P2_1/c,Co;Gd;Mn;O,227.28072273246812,40.0000002,,8,3,FM,6.9;6.9;6.9;6.9;3.2;3.3;2.6;2.6;0.0;0.0;0.0;0.0;0.0;0.0;0.0;0.0;0.0;0.0;0.0;0.0,,,,,0.0,0.17599380941376103
mp-778,Fe2P,Fe2 P1,,-0.29857735932539703,Hexagonal,P-62m,Fe;P,98.26088270730288,9.3168944,,6,2,FM,2.5;2.5;2.5;0.8;0.8;0.8;0.0;0.0;0.0,,,,,0.0023547379166650004,0.09481793917680201
mp-17151,UCrO4,U1 Cr1 O4,,-3.14174715458333,Orthorhombic,Pbcn,Cr;O;U,292.31625986599056,16.0000002,,8,2,FM,1.3;1.3;1.3;1.3;2.7;2.7;2.7;2.7;0.0;0.0;0.0;0.0;0.0;0.0;0.0;0.0;0.0;0.0;0.0;0.0;0.0;0.0;0.0;0.0,,,,,0.0,0.05473523849591801
mp-1102640,MnPd2,Mn1 Pd2,,-0.24756227931034402,Orthorhombic,Pnma,Mn;Pd,184.18149357606796,18.1959809,,12,3,FM,3.9;3.9;3.9;3.9;0.2;0.2;0.2;0.2;0.2;0.2;0.2;0.2,,,,,0.0,0.098793752546506
mp-558986,CaMn6SiO12,Ca1 Mn6 Si1 O12,,-2.439726508969828,Tetragonal,I4_1/acd,Ca;Mn;O;Si,846.4677896748557,95.9999966,,24,3,FM,0.0;0.0;0.0;0.0;3.8;3.8;3.8;3.8;3.8;3.8;3.8;3.8;3.8;3.8;3.8;3.8;3.8;3.8;3.8;3.8;3.8;3.8;3.8;3.8;3.8;3.8;3.8;3.8;0.0;0.0;0.0;0.0;0.0;0.0;0.0;0.0;0.0;0.0;0.0;0.0;0.0;0.0;0.0;0.0;0.0;0.0;0.0;0.0;0.0;0.0;0.0;0.0;0.0;0.0;0.0;0.0;0.0;0.0;0.0;0.0;0.0;0.0;0.0;0.0;0.0;0.0;0.0;0.0;0.0;0.0;0.0;0.0;0.0;0.0;0.0;0.0;0.0;0.0;0.0;0.0,,,,,0.0,0.11341246267253101
mp-541137,BaCr2O4,Ba1 Cr2 O4,,-2.588712697857141,Orthorhombic,Pmmn,Ba;Cr;O,382.52452444182234,23.9999982,,8,3,FM,0.0;0.0;0.0;0.0;2.9;2.9;2.9;2.9;2.9;2.9;2.9;2.9;0.0;0.0;0.0;0.0;0.0;0.0;0.0;0.0;0.0;0.0;0.0;0.0;0.0;0.0;0.0;0.0,,,,,0.0,0.062741070615068
mp-601285,MnGaNi2,Mn1 Ga1 Ni2,,-0.42681750112068706,Tetragonal,I4/mmm,Ga;Mn;Ni,47.94434792207107,4.7265824,,3,2,FM,3.7;0.0;0.6000000000000001;0.6000000000000001,,,,,0.0,0.09858476764941301
mp-1103865,BaFe2(PO4)2,Ba1 Fe2 P2 O8,,-2.635519018021978,Trigonal,R-3,Ba;Fe;O;P,337.45047071253356,15.9979615,,2,2,FM,0.0;3.8;3.8;0.0;0.0;0.0;0.0;0.0;0.0;0.0;0.0;0.0;0.0,,,,,0.0,0.04740832474235301
mp-1204413,Mn3P4H12(NO8)2,Mn3 P4 H12 N2 O16,,-1.855474892496337,Monoclinic,P2_1/c,H;Mn;N;O;P,766.2083747199671,30.0030207,,6,2,FM,4.7;4.7;4.7;4.7;4.7;4.7;0.0;0.0;0.0;0.0;0.0;0.0;0.0;0.0;0.0;0.0;0.0;0.0;0.0;0.0;0.0;0.0;0.0;0.0;0.0;0.0;0.0;0.0;0.0;0.0;0.0;0.0;0.0;0.0;0.0;0.0;0.0;0.0;0.0;0.0;0.0;0.0;0.0;0.0;0.0;0.0;0.0;0.0;0.0;0.0;0.0;0.0;0.0;0.0;0.0;0.0;0.0;0.0;0.0;0.0;0.0;0.0;0.0;0.0;0.0;0.0;0.0;0.0;0.0;0.0;0.0;0.0;0.0;0.0,,,,,0.0,0.039157782255989
mp-1077071,GdCo5,Gd1 Co5,,-0.008528951666666,Hexagonal,P6/mmm,Co;Gd,83.2771175938173,15.0870016,,6,3,FM,6.7;1.8;1.8;1.8;1.8;1.8,,,,,0.0,0.181166231924435
mp-505149,CsCr5Se8,Cs1 Cr5 Se8,,-0.9582070937500001,Monoclinic,C2/m,Cr;Cs;Se,314.02014561932197,14.9999998,,5,3,FM,0.0;3.1;3.1;3.1;3.2;3.2;0.0;0.0;0.0;0.0;0.0;0.0;0.0;0.0,,,,,0.0,0.047767635322939005
mp-776627,Li3FeF6,Li3 Fe1 F6,,-2.9643127789999992,Monoclinic,C2/c,F;Fe;Li,600.6111672266958,30.0000015,,6,2,FM,0.0;0.0;0.0;0.0;0.0;0.0;0.0;0.0;0.0;0.0;0.0;0.0;0.0;0.0;0.0;0.0;0.0;0.0;4.3;4.3;4.3;4.3;4.3;4.3;0.0;0.0;0.0;0.0;0.0;0.0;0.0;0.0;0.0;0.0;0.0;0.0;0.0;0.0;0.0;0.0;0.0;0.0;0.0;0.0;0.0;0.0;0.0;0.0;0.0;0.0;0.0;0.0;0.0;0.0;0.0;0.0;0.0;0.0;0.0;0.0,,,,,0.0,0.049949123720965
mp-9913,Fe5B2P,Fe5 B2 P1,,-0.29092604662202404,Tetragonal,I4/mcm,B;Fe;P,154.69611953389122,22.1440387,,10,4,FM,2.6;2.3;2.3;2.3;2.3;2.3;2.3;2.3;2.6;2.3;0.0;0.0;0.0;0.0;0.0;0.0,,,,,0.0,0.143145405112431
mp-9981,Mn2N,Mn2 N1,,-0.435483445905172,Orthorhombic,Pbcn,Mn;N,120.29446764016485,20.3199363,,8,2,FM,2.7;2.7;2.7;2.7;2.7;2.7;2.7;2.7;0.0;0.0;0.0;0.0,,,,,0.0,0.168918294403885
mp-18641,NaMnCrF6,Na1 Mn1 Cr1 F6,,-3.049081169923372,Trigonal,P321,Cr;F;Mn;Na,370.10817841158547,24.0013484,,6,3,FM,0.0;0.0;0.0;4.7;4.7;4.7;2.9;2.9;3.0;0.0;0.0;0.0;0.0;0.0;0.0;0.0;0.0;0.0;0.0;0.0;0.0;0.0;0.0;0.0;0.0;0.0;0.0,,,,,0.0,0.064849548861654
mp-1215056,BaMn5(SO4)6,Ba1 Mn5 S6 O24,,-2.157960226240422,Trigonal,P-3,Ba;Mn;O;S,1480.168374437707,76.1081103,,15,4,FM,0.0;0.0;0.0;4.7;4.7;4.7;4.7;4.7;4.7;4.7;4.7;4.7;4.7;4.7;4.7;4.7;4.7;4.7;0.0;0.0;0.0;0.0;0.0;0.0;0.0;0.0;0.0;0.0;0.0;0.0;0.0;0.0;0.0;0.0;0.0;0.0;0.0;0.0;0.0;0.0;0.0;0.0;0.0;0.0;0.0;0.0;0.0;0.0;0.0;0.0;0.0;0.0;0.0;0.0;0.0;0.0;0.0;0.0;0.0;0.0;0.0;0.0;0.0;0.0;0.0;0.0;0.0;0.0;0.0;0.0;0.0;0.0;0.0;0.0;0.0;0.0;0.0;0.0;0.0;0.0;0.0;0.0;0.0;0.0;0.0;0.0;0.0;0.0;0.0;0.0;0.0;0.0;0.0;0.0;0.0;0.0;0.0;0.0;0.0;0.0;0.0;0.0;0.0;0.0;0.0;0.0;0.0;0.0,,,,,0.0,0.051418549142365
mp-2761326,CoPO4,Co1 P1 O4,,-1.8890513488293652,Monoclinic,P2/m,Co;O;P,247.48119681791871,12.0000004,,6,6,FM,3.1;3.1;3.1;0.1;0.0;0.0;0.0;0.0;0.0;0.0;0.0;0.0;0.0;0.0;0.0;0.0;0.0;0.0;0.2;0.0;0.0;0.0;0.2;0.0,,,,,0.0,0.048488533893865
mp-759718,Ba5Mn5O14,Ba5 Mn5 O14,,-2.59397102312141,Orthorhombic,Ama2,Ba;Mn;O,665.8734751937594,34.0000011,,10,3,FM,0.0;0.0;0.0;0.0;0.0;0.0;0.0;0.0;0.0;0.0;3.5;2.8;3.0;3.0;2.8;3.0;3.0;3.5;3.5;3.5;0.0;0.0;0.0;0.0;0.0;0.0;0.0;0.0;0.0;0.0;0.0;0.0;0.0;0.0;0.0;0.0;0.0;0.0;0.0;0.0;0.0;0.0;0.0;0.0;0.0;0.0;0.0;0.0,,,,,0.0,0.051060753080916
mp-3201550,BaMnCrP2,Ba1 Mn1 Cr1 P2,,-0.7966620690870281,Tetragonal,I-4m2,Ba;Cr;Mn;P,98.68965617633664,4.5667679,,2,2,FM,0.0;2.8;1.9;0.0;0.0,,,,,0.0,0.046274027866103004
mp-1215514,YbMnCuP2,Yb1 Mn1 Cu1 P2,,-0.9674711230870251,Trigonal,P3m1,Cu;Mn;P;Yb,86.69051529908675,4.7058484,,3,3,FM,0.2;4.0;0.1;0.0;0.0,,,,,0.0,0.054283313275559006
mp-1280544,Mn2V3NiO8,Mn2 V3 Ni1 O8,,-2.279974640640396,Monoclinic,C2/m,Mn;Ni;O;V,302.65716483745354,34.0000003,,12,12,FM,4.4;4.4;4.4;4.4;1.7000000000000002;1.7000000000000002;1.7000000000000002;1.7000000000000002;1.7000000000000002;1.7000000000000002;1.7000000000000002;1.7000000000000002;0.0;0.0;0.0;0.0;0.0;0.0;0.0;0.0;0.0;0.0;0.0;0.0;0.0;0.0;0.0;0.0,,,,,0.023710993750063,0.112338329470112
mp-619064,PrMnGeO5,Pr1 Mn1 Ge1 O5,,-2.6750331186997123,Triclinic,P-1,Ge;Mn;O;Pr,206.72722259624467,8.0000333,,2,2,FM,0.0;0.0;3.9;3.9;0.0;0.0;0.0;0.0;0.0;0.0;0.0;0.0;0.0;0.0;0.0;0.0,,,,,0.0,0.038698499401913
mp-1204715,KFe3As4(HO8)2,K1 Fe3 As4 H2 O16,,-1.714095502105769,Monoclinic,C2/c,As;Fe;H;K;O,711.108673942469,29.997759,,6,2,FM,0.0;0.0;4.4;4.4;4.4;4.4;4.4;4.4;0.0;0.0;0.0;0.0;0.0;0.0;0.0;0.0;0.0;0.0;0.0;0.0;0.0;0.0;0.0;0.0;0.0;0.0;0.0;0.0;0.0;0.0;0.0;0.0;0.0;0.0;0.0;0.0;0.0;0.0;0.0;0.0;0.0;0.0;0.0;0.0;0.0;0.0;0.0;0.0;0.0;0.0;0.0;0.0,,,,,0.0,0.04218449317133
mp-36884,Mn2SnO4,Mn2 Sn1 O4,,-1.929680426995073,Orthorhombic,Imma,Mn;O;Sn,176.27263347332203,19.9977468,,4,2,FM,4.5;4.5;4.5;4.5;0.0;0.0;0.0;0.0;0.0;0.0;0.0;0.0;0.0;0.0,,,,,0.042686183095236,0.11344782457695801
mp-1225934,CsMnVF6,Cs1 Mn1 V1 F6,,-3.153270133831417,Orthorhombic,Imma,Cs;F;Mn;V,296.6294766807588,14.0000005,,4,2,FM,0.0;0.0;4.6;4.6;1.9;1.9;0.0;0.0;0.0;0.0;0.0;0.0;0.0;0.0;0.0;0.0;0.0;0.0,,,,,0.0,0.047196929504977
mp-18893,Ca2Mn3O8,Ca2 Mn3 O8,,-2.548613411803713,Monoclinic,C2/m,Ca;Mn;O,149.70349076986702,8.9999996,,3,2,FM,0.0;0.0;2.9;2.8;2.8;0.0;0.0;0.0;0.0;0.0;0.0;0.0;0.0,,,,,0.0,0.060118835931724006
mp-578723,UNi7(BO4)4,U1 Ni7 B4 O16,,-2.157572787559523,Orthorhombic,Pnnm,B;Ni;O;U,547.5933975010023,28.0004468,,16,4,FM,0.2;0.2;1.8;1.8;1.8;1.8;1.8;1.8;1.8;1.8;1.8;1.8;1.8;1.8;1.8;1.8;0.0;0.0;0.0;0.0;0.0;0.0;0.0;0.0;0.0;0.0;0.0;0.0;0.0;0.0;0.0;0.0;0.0;0.0;0.0;0.0;0.0;0.0;0.0;0.0;0.0;0.0;0.0;0.0;0.0;0.0;0.0;0.0;0.0;0.0;0.0;0.0;0.0;0.0;0.0;0.0,,,,,0.0,0.051133645744785
mp-1197660,HfMnGe2,Hf1 Mn1 Ge2,,-0.49612585882902205,Orthorhombic,Pbam,Ge;Hf;Mn,766.3429309010428,32.2195904,,12,2,FM,0.0;0.0;0.0;0.0;0.0;0.0;0.0;0.0;0.0;0.0;0.0;0.0;3.0;3.0;3.0;3.0;3.0;3.0;3.0;3.0;2.8;2.8;2.8;2.8;0.0;0.0;0.0;0.0;0.0;0.0;0.0;0.0;0.0;0.0;0.0;0.0;0.0;0.0;0.0;0.0;0.0;0.0;0.0;0.0;0.0;0.0;0.0;0.0,,,,,0.016865908958333002,0.042043306072018005
mp-3202620,MnFe3Co4,Mn1 Fe3 Co4,,-0.251330628060344,Trigonal,R-3m,Co;Fe;Mn,91.9406946031034,18.9259667,,8,5,FM,3.4;3.0;3.0;3.0;1.7000000000000002;1.8;1.8;1.7000000000000002,,,,,0.0,0.205849724996108
mp-1040941,CaFe2P2O9,Ca1 Fe2 P2 O9,,-2.394903017300169,Orthorhombic,Pnma,Ca;Fe;O;P,666.5572125640037,40.0,,12,9,FM,0.0;0.0;0.0;0.0;4.2;4.2;4.2;4.2;4.2;4.2;4.2;4.2;0.0;0.0;0.0;0.0;0.0;0.0;0.0;0.0;0.0;0.0;0.0;0.0;0.0;0.0;0.0;0.0;0.0;0.0;0.0;0.0;0.4;0.4;0.4;0.4;0.0;0.0;0.0;0.0;0.0;0.0;0.0;0.0;0.0;0.0;0.0;0.0;0.0;0.0;0.0;0.0;0.0;0.0;0.0;0.0,,,,,0.0,0.06000985248683201
mp-31908,Mn3Nb6O11,Mn3 Nb6 O11,,-2.320015468984914,Trigonal,P-3m1,Mn;Nb;O,497.0086128960751,29.9999999,,3,2,FM,4.4;4.4;4.5;0.0;0.0;0.0;0.0;0.0;0.0;0.0;0.0;0.0;0.0;0.0;0.0;0.0;0.0;0.0;0.0;0.0,,,,,0.0,0.06036112679253101
mp-1189894,Y2MnCoO6,Y2 Mn1 Co1 O6,,-2.8849776211982743,Monoclinic,P2_1/c,Co;Mn;O;Y,217.66254487098732,11.9955027,,4,2,FM,0.0;0.0;0.0;0.0;3.0;3.0;2.6;2.6;0.0;0.0;0.0;0.0;0.0;0.0;0.0;0.0;0.0;0.0;0.0;0.0,,,,,0.0,0.055110550632907006
mp-1195006,K2Mn3V2CO11,K2 Mn3 V2 C1 O11,,-2.274091620699637,Hexagonal,P6_3/m,C;K;Mn;O;V,549.3868931121634,30.0001053,,10,3,FM,0.0;0.0;0.0;0.0;4.6;4.6;4.6;4.6;4.6;4.6;0.30000000000000004;0.30000000000000004;0.30000000000000004;0.30000000000000004;0.0;0.0;0.0;0.0;0.0;0.0;0.0;0.0;0.0;0.0;0.0;0.0;0.0;0.0;0.0;0.0;0.0;0.0;0.0;0.0;0.0;0.0;0.0;0.0,,,,,0.0,0.054606518058804
mp-18649,MnGeRh,Mn1 Ge1 Rh1,,-0.583946713716474,Orthorhombic,Ima2,Ge;Mn;Rh,264.5009540324276,24.2994097,,12,12,FM,3.9;3.9;3.8;3.8;3.9;3.9;0.0;0.0;0.0;0.0;0.0;0.0;0.2;0.2;0.30000000000000004;0.30000000000000004;0.30000000000000004;0.30000000000000004,,,,,0.0,0.09186889245405401
mp-559700,RbMnO2,Rb1 Mn1 O2,,-1.984294918724856,Triclinic,P-1,Mn;O;Rb,411.785294148968,23.999999,,6,6,FM,0.0;0.0;0.0;0.0;0.0;0.0;3.7;3.7;3.6;3.6;3.7;3.7;0.0;0.0;0.0;0.0;0.0;0.0;0.0;0.0;0.0;0.0;0.0;0.0,,,,,0.0,0.058282797712823006
mp-1208946,Sr2FeIrO6,Sr2 Fe1 Ir1 O6,,-2.082710719249999,Triclinic,P-1,Fe;Ir;O;Sr,122.24376910721874,6.997214,,8,5,FM,0.0;0.0;4.0;1.4;0.2;0.2;0.2;0.2;0.2;0.2,,,,,0.0,0.057239841761282