ID,pretty_formula,compound,energy_cell,energy_atom,lattice_system,spacegroup,species,volume_cell,moment_cell,mag_field,mag_sites_MP,mag_sites,mag_type,magmom,comment1,icsd_ids,doi,comment2,e_above_hull,magnetization_norm_vol
mp-1194949,KFeNi(PO4)2,K1 Fe1 Ni1 P2 O8,,-2.350088777233516,Monoclinic,P2_1/c,Fe;K;Ni;O;P,682.5504806877859,27.9988875,,8,2,FM,0.0;0.0;0.0;0.0;4.4;4.4;4.4;4.4;1.8;1.8;1.8;1.8;0.0;0.0;0.0;0.0;0.0;0.0;0.0;0.0;0.0;0.0;0.0;0.0;0.0;0.0;0.0;0.0;0.0;0.0;0.0;0.0;0.0;0.0;0.0;0.0;0.0;0.0;0.0;0.0;0.0;0.0;0.0;0.0;0.0;0.0;0.0;0.0;0.0;0.0;0.0;0.0,,,,,0.0,0.041020976897981
mp-30947,Na3FeO3,Na3 Fe1 O3,,-1.670662739821427,Monoclinic,P2_1/c,Fe;Na;O,375.9041172984559,19.9999993,,16,4,FM,0.0;0.0;0.0;0.0;0.0;0.0;0.0;0.0;0.0;0.0;0.0;0.0;4.0;4.0;4.0;4.0;0.30000000000000004;0.30000000000000004;0.30000000000000004;0.30000000000000004;0.2;0.2;0.2;0.2;0.2;0.2;0.2;0.2,,,,,0.002862889285721,0.053205055171344
mp-20840,MnCo2Sn,Mn1 Co2 Sn1,,-0.182803818620691,Cubic,Fm-3m,Co;Mn;Sn,52.80008124376353,5.1724073,,3,2,FM,3.5;1.0;1.0;0.0,,,,,0.0,0.09796210873465101
mp-1228695,Ba6Nd2Fe4O15,Ba6 Nd2 Fe4 O15,,-2.681690976851851,Monoclinic,Cc,Ba;Fe;Nd;O,890.4672742515856,39.994552,,8,4,FM,0.0;0.0;0.0;0.0;0.0;0.0;0.0;0.0;0.0;0.0;0.0;0.0;0.0;0.0;0.0;0.0;4.3;4.3;4.2;4.2;4.2;4.2;4.2;4.2;0.0;0.0;0.0;0.0;0.0;0.0;0.0;0.0;0.0;0.0;0.0;0.0;0.0;0.0;0.0;0.0;0.0;0.0;0.0;0.0;0.0;0.0;0.0;0.0;0.0;0.0;0.0;0.0;0.0;0.0,,,,,0.0,0.044914117740727004
mp-560663,Rb(CoS)2,Rb1 Co2 S2,,-0.7294085113750001,Tetragonal,I4/mmm,Co;Rb;S,97.23869760284192,4.9995633999999995,,4,2,FM,0.0;2.2;2.2;0.2;0.2,,,,,0.0,0.051415367783102
mp-977361,ZnFeRh2,Zn1 Fe1 Rh2,,-0.38979075624999704,Cubic,Fm-3m,Fe;Rh;Zn,53.17194619003629,4.4160568,,3,2,FM,0.0;3.4;0.6000000000000001;0.6000000000000001,,,,,0.0,0.083052382250915
mp-3210453,Mn7NiPbO16,Mn7 Ni1 Pb1 O16,,-1.9487011168551702,Triclinic,P1,Mn;Ni;O;Pb,270.9038096613534,23.0015019,,8,8,FM,2.9;2.9;2.9;2.9;2.9;2.9;2.9;1.6;0.0;0.0;0.0;0.0;0.0;0.0;0.0;0.0;0.0;0.0;0.0;0.0;0.0;0.0;0.0;0.0;0.0,,,,,0.0,0.084906527998824
mp-19097,FeBO3,Fe1 B1 O3,,-2.09442768975,Trigonal,R-3c,B;Fe;O,90.18607292723622,9.9999998,,8,2,FM,4.2;4.2;0.0;0.0;0.2;0.2;0.2;0.2;0.2;0.2,,,,,0.0,0.11088186319043
mp-1221860,Mn2SiNi2Ge,Mn2 Si1 Ni2 Ge1,,-0.372312597643678,Orthorhombic,Pmc2_1,Ge;Mn;Ni;Si,149.56546515930233,11.7032148,,8,4,FM,2.9;2.9;2.9;2.9;0.0;0.0;0.2;0.2;0.2;0.2;0.0;0.0,,,,,0.0,0.078248108863465
mp-11501,MnNi3,Mn1 Ni3,,-0.23613481112068802,Cubic,Pm-3m,Mn;Ni,44.49233801060091,5.4483618,,4,2,FM,3.6;0.7000000000000001;0.7000000000000001;0.7000000000000001,,,,,0.0,0.12245618107778102
mp-1272804,LiMn2O4,Li1 Mn2 O4,,-2.0681063427422,Orthorhombic,Imma,Li;Mn;O,148.65876347556787,13.9997267,,4,4,FM,0.0;0.0;3.9;3.2;3.9;3.2;0.0;0.0;0.0;0.0;0.0;0.0;0.0;0.0,,,,,0.0,0.09417357155873801
mp-566670,K3Fe5(PO4)6,K3 Fe5 P6 O24,,-2.433813966042292,Monoclinic,C2/c,Fe;K;O;P,1116.721318035277,50.0004448,,10,4,FM,0.0;0.0;0.0;0.0;0.0;0.0;4.4;4.4;4.4;4.4;4.4;4.4;4.4;4.4;4.4;4.4;0.0;0.0;0.0;0.0;0.0;0.0;0.0;0.0;0.0;0.0;0.0;0.0;0.0;0.0;0.0;0.0;0.0;0.0;0.0;0.0;0.0;0.0;0.0;0.0;0.0;0.0;0.0;0.0;0.0;0.0;0.0;0.0;0.0;0.0;0.0;0.0;0.0;0.0;0.0;0.0;0.0;0.0;0.0;0.0;0.0;0.0;0.0;0.0;0.0;0.0;0.0;0.0;0.0;0.0;0.0;0.0;0.0;0.0;0.0;0.0,,,,,0.0,0.044774326407567004
mp-729046,Mn7P6(HO6)4,Mn7 P6 H4 O24,,-2.202265445956987,Triclinic,P-1,H;Mn;O;P,448.60868656178343,35.0000003,,7,4,FM,4.6;4.6;4.6;4.6;4.6;4.6;4.6;0.0;0.0;0.0;0.0;0.0;0.0;0.0;0.0;0.0;0.0;0.0;0.0;0.0;0.0;0.0;0.0;0.0;0.0;0.0;0.0;0.0;0.0;0.0;0.0;0.0;0.0;0.0;0.0;0.0;0.0;0.0;0.0;0.0;0.0,,,,,0.0,0.078018998179117
mp-3623,MnAlCo2,Mn1 Al1 Co2,,-0.40755712112069103,Cubic,Fm-3m,Al;Co;Mn,45.30800789469671,4.1265224,,3,2,FM,2.9;0.0;0.8;0.8,,,,,0.0,0.091077109582719
mp-1025180,Mn(CrSe2)2,Mn1 Cr2 Se4,,-0.887475590104679,Monoclinic,C2/m,Cr;Mn;Se,144.72272747809123,11.0000002,,3,2,FM,4.3;3.2;3.2;0.0;0.0;0.0;0.0,,,,,0.0,0.07600741356719601
mp-3205300,K3Cr3SnO8,K3 Cr3 Sn1 O8,,-2.131903096416666,Triclinic,P1,Cr;K;O;Sn,396.69766651919565,17.9999223,,6,6,FM,0.0;0.0;0.0;0.0;0.0;0.0;2.9;2.9;2.9;2.9;2.9;2.9;0.0;0.0;0.0;0.0;0.0;0.0;0.0;0.0;0.0;0.0;0.0;0.0;0.0;0.0;0.0;0.0;0.0;0.0,,,,,0.0,0.045374409327736
mp-3212891,Ba2LiFeO4,Ba2 Li1 Fe1 O4,,-2.365194244583334,Orthorhombic,Cmc2_1,Ba;Fe;Li;O,251.53049050719972,10.0000917,,8,4,FM,0.0;0.0;0.0;0.0;0.0;0.0;3.9;3.9;0.0;0.2;0.2;0.2;0.0;0.2;0.2;0.2,,,,,0.0,0.039756976101924
mp-19401,CrPO4,Cr1 P1 O4,,-2.43955725827381,Orthorhombic,Imma,Cr;O;P,424.8924026285614,17.9999994,,6,2,FM,2.8;2.8;2.8;2.8;2.8;2.8;0.0;0.0;0.0;0.0;0.0;0.0;0.0;0.0;0.0;0.0;0.0;0.0;0.0;0.0;0.0;0.0;0.0;0.0;0.0;0.0;0.0;0.0;0.0;0.0;0.0;0.0;0.0;0.0;0.0;0.0,,,,,0.0,0.042363664985875
mp-16381,NaMn6P7O24,Na1 Mn6 P7 O24,,-2.592420122143829,Monoclinic,P2_1/m,Mn;Na;O;P,934.7843022575822,60.0002465,,12,3,FM,0.0;0.0;4.7;4.7;4.7;4.7;4.7;4.7;4.7;4.7;4.7;4.7;4.7;4.7;0.0;0.0;0.0;0.0;0.0;0.0;0.0;0.0;0.0;0.0;0.0;0.0;0.0;0.0;0.0;0.0;0.0;0.0;0.0;0.0;0.0;0.0;0.0;0.0;0.0;0.0;0.0;0.0;0.0;0.0;0.0;0.0;0.0;0.0;0.0;0.0;0.0;0.0;0.0;0.0;0.0;0.0;0.0;0.0;0.0;0.0;0.0;0.0;0.0;0.0;0.0;0.0;0.0;0.0;0.0;0.0;0.0;0.0;0.0;0.0;0.0;0.0,,,,,0.0,0.064186193922057
mp-1218399,Sr4FeRuO8,Sr4 Fe1 Ru1 O8,,-2.557285502142856,Orthorhombic,Cmmm,Fe;O;Ru;Sr,198.65143188289775,7.9958921,,6,5,FM,0.0;0.0;0.0;0.0;4.3;2.0;0.2;0.2;0.2;0.2;0.0;0.0;0.0;0.0,,,,,0.0,0.040250865670645
mp-1102690,MnNiP,Mn1 Ni1 P1,,-0.6527475724863171,Orthorhombic,Pnma,Mn;Ni;P,146.50476760361423,15.3275939,,8,2,FM,3.8;3.8;3.8;3.8;0.1;0.1;0.1;0.1;0.0;0.0;0.0;0.0,,,,,0.0,0.10462180958827601
mp-3209491,Fe2SiMo3C,Fe2 Si1 Mo3 C1,,-0.26331635857142704,Cubic,Fd-3m,C;Fe;Mo;Si,345.4467847886332,21.7921312,,20,2,FM,2.6;2.6;2.6;2.6;2.6;2.6;2.6;2.6;0.0;0.0;0.0;0.0;0.1;0.1;0.1;0.1;0.1;0.1;0.1;0.1;0.1;0.1;0.1;0.1;0.0;0.0;0.0;0.0,,,,,0.0,0.06308390223789101
mp-649,FePt3,Fe1 Pt3,,-0.298607557499998,Cubic,Pm-3m,Fe;Pt,58.90889908037827,4.8586263,,4,2,FM,3.5;0.4;0.4;0.4,,,,,0.0,0.082476949592465
mp-1222029,Mn2GaCu3,Mn2 Ga1 Cu3,,-0.16531622149425101,Hexagonal,P6_3/mmc,Cu;Ga;Mn,161.65884649936763,16.5905339,,10,2,FM,4.1;4.1;4.1;4.1;0.0;0.0;0.1;0.1;0.1;0.1;0.1;0.1,,,,,0.0,0.102626823457291
mp-1225937,CsFeNiF6,Cs1 Fe1 Ni1 F6,,-2.621478015555556,Orthorhombic,Imma,Cs;F;Fe;Ni,276.51428424861473,14.0168024,,4,2,FM,0.0;0.0;4.3;4.3;1.8;1.8;0.0;0.0;0.0;0.0;0.0;0.0;0.0;0.0;0.0;0.0;0.0;0.0,,,,,0.0,0.050691060818389005
mp-862290,LiFeRh2,Li1 Fe1 Rh2,,-0.19098657666666602,Cubic,Fm-3m,Fe;Li;Rh,50.944779723957126,4.4817792,,3,2,FM,0.0;3.4;0.6000000000000001;0.6000000000000001,,,,,0.018206075000001,0.087973276639616
mp-567856,MnAsRh,Mn1 As1 Rh1,,-0.563878635660917,Hexagonal,P-62m,As;Mn;Rh,135.51708482332225,11.6120651,,3,3,FM,4.0;4.0;4.0;0.0;0.0;0.0;0.0;0.0;0.0,,,,,0.0,0.085687093366412
mp-19313,Zn(FeO2)2,Zn1 Fe2 O4,,-1.649042634285713,Cubic,Fd-3m,Fe;O;Zn,150.06237695876197,19.999929,,12,4,FM,0.0;0.0;4.1;4.1;4.2;4.1;0.30000000000000004;0.30000000000000004;0.30000000000000004;0.30000000000000004;0.30000000000000004;0.30000000000000004;0.30000000000000004;0.30000000000000004,,,,,0.0,0.13327743705869702
mp-1210020,Ni3BO5,Ni3 B1 O5,,-1.5951130520833332,Orthorhombic,Pbam,B;Ni;O,323.0583063876077,20.0001594,,12,4,FM,1.6;1.6;1.2;1.2;1.2;1.2;1.5;1.5;1.6;1.6;1.6;1.6;0.0;0.0;0.0;0.0;0.0;0.0;0.0;0.0;0.0;0.0;0.0;0.0;0.0;0.0;0.0;0.0;0.0;0.0;0.0;0.0;0.0;0.0;0.0;0.0,,,,,0.0,0.061908822663125
mp-2832,Cr2Se3,Cr2 Se3,,-0.8276204504374981,Trigonal,R-3,Cr;Se,204.47889919757165,11.999659,,4,3,FM,3.1;3.2;3.1;3.1;0.0;0.0;0.0;0.0;0.0;0.0,,,,,0.0,0.058684094285961004
mp-1228782,BaMn8O16,Ba1 Mn8 O16,,-2.227908316234482,Monoclinic,P2/c,Ba;Mn;O,557.3668269609952,51.9990443,,16,4,FM,0.0;0.0;3.2;3.2;3.2;3.2;3.1;3.1;3.1;3.1;3.2;3.2;3.2;3.2;3.1;3.1;3.1;3.1;0.0;0.0;0.0;0.0;0.0;0.0;0.0;0.0;0.0;0.0;0.0;0.0;0.0;0.0;0.0;0.0;0.0;0.0;0.0;0.0;0.0;0.0;0.0;0.0;0.0;0.0;0.0;0.0;0.0;0.0;0.0;0.0,,,,,0.0,0.09329411401019501
mp-4768,Eu(SiNi)2,Eu1 Si2 Ni2,,-0.672600339000001,Tetragonal,I4/mmm,Eu;Ni;Si,78.24272925999418,7.2054991,,3,2,FM,6.6;0.0;0.0;0.1;0.1,,,,,0.0,0.09209161244946701
mp-7295,RbCr5S8,Rb1 Cr5 S8,,-1.123377585982144,Monoclinic,C2/m,Cr;Rb;S,266.5835353912112,15.0000011,,5,3,FM,0.0;3.0;3.0;3.0;3.0;3.0;0.0;0.0;0.0;0.0;0.0;0.0;0.0;0.0,,,,,0.0,0.056267545097965006
mp-557389,KMn5(SeO3)6,K1 Mn5 Se6 O18,,-1.655964202365588,Monoclinic,C2/c,K;Mn;O;Se,920.6828441222532,48.0062981,,10,3,FM,0.0;0.0;4.6;4.6;4.6;4.6;4.0;4.6;4.6;4.6;4.6;4.0;0.0;0.0;0.0;0.0;0.0;0.0;0.0;0.0;0.0;0.0;0.0;0.0;0.0;0.0;0.0;0.0;0.0;0.0;0.0;0.0;0.0;0.0;0.0;0.0;0.0;0.0;0.0;0.0;0.0;0.0;0.0;0.0;0.0;0.0;0.0;0.0;0.0;0.0;0.0;0.0;0.0;0.0;0.0;0.0;0.0;0.0;0.0;0.0,,,,,0.0,0.052142057828575006
mp-3224,Mn7SiO12,Mn7 Si1 O12,,-2.236868358525862,Tetragonal,I4_1/acd,Mn;O;Si,876.8759400705213,116.0100924,,28,4,FM,4.0;4.0;4.0;4.0;4.0;4.0;4.0;4.0;4.0;4.0;4.0;4.0;4.0;4.0;4.0;4.0;4.0;4.0;4.0;4.0;4.0;4.0;4.0;4.0;4.6;4.6;4.6;4.6;0.0;0.0;0.0;0.0;0.0;0.0;0.0;0.0;0.0;0.0;0.0;0.0;0.0;0.0;0.0;0.0;0.0;0.0;0.0;0.0;0.0;0.0;0.0;0.0;0.0;0.0;0.0;0.0;0.0;0.0;0.0;0.0;0.0;0.0;0.0;0.0;0.0;0.0;0.0;0.0;0.0;0.0;0.0;0.0;0.0;0.0;0.0;0.0;0.0;0.0;0.0;0.0,,,,,0.0,0.13229932205765602
mp-1221115,NaCr12Si8BrO28,Na1 Cr12 Si8 Br1 O28,,-2.611867941527586,Tetragonal,I4mm,Br;Cr;Na;O;Si,721.5783809677811,47.9988307,,12,3,FM,0.0;3.8;3.8;3.8;3.8;3.8;3.8;3.8;3.8;3.8;3.8;3.8;3.8;0.0;0.0;0.0;0.0;0.0;0.0;0.0;0.0;0.0;0.0;0.0;0.0;0.0;0.0;0.0;0.0;0.0;0.0;0.0;0.0;0.0;0.0;0.0;0.0;0.0;0.0;0.0;0.0;0.0;0.0;0.0;0.0;0.0;0.0;0.0;0.0;0.0,,,,,0.0,0.06651921948607101
mp-15974,Mn(CrS2)2,Mn1 Cr2 S4,,-1.104684112961822,Cubic,Fd-3m,Cr;Mn;S,259.56819918211835,21.9999988,,6,2,FM,4.3;4.3;3.1;3.1;3.1;3.1;0.0;0.0;0.0;0.0;0.0;0.0;0.0;0.0,,,,,0.0,0.084756140657139
mp-1184364,Fe3Rh,Fe3 Rh1,,-0.140249955000001,Cubic,Fm-3m,Fe;Rh,50.32830306459576,9.5787542,,4,3,FM,3.1;3.1;2.8;1.0,,,,,0.0,0.19032539578586202
mp-1218104,SrPr3(FeO3)4,Sr1 Pr3 Fe4 O12,,-2.628860465749999,Monoclinic,Pm,Fe;O;Pr;Sr,244.67843485882221,19.0139063,,4,2,FM,0.0;0.0;0.0;0.0;4.3;4.3;4.3;4.3;0.0;0.0;0.0;0.0;0.0;0.0;0.0;0.0;0.0;0.0;0.0;0.0,,,,,0.0,0.077709775734714
mp-3202880,V2ZnCo4Si,V2 Zn1 Co4 Si1,,-0.33264226,Trigonal,R-3m,Co;Si;V;Zn,90.64171850597427,3.999649299999999,,4,2,FM,0.0;0.0;0.0;1.1;1.1;1.1;1.1;0.0,,,,,0.0,0.044125920888584004
mp-866782,Gd2(Ga3Co)3,Gd2 Ga9 Co3,,-0.44937089428571303,Orthorhombic,Cmcm,Co;Ga;Gd,435.04738942548715,28.9993998,,6,3,FM,7.0;7.0;7.0;7.0;0.0;0.0;0.0;0.0;0.0;0.0;0.0;0.0;0.0;0.0;0.0;0.0;0.0;0.0;0.0;0.0;0.0;0.0;0.1;0.1;0.0;0.0;0.0;0.0,,,,,0.0,0.06665802509077401
mp-757454,Mn6PbO12,Mn6 Pb1 O12,,-2.023138503784028,Monoclinic,C2/m,Mn;O;Pb,414.37207071775777,39.9998586,,12,4,FM,3.2;3.2;3.3;3.2;3.2;3.2;3.2;3.2;3.2;3.2;3.3;3.2;0.0;0.0;0.0;0.0;0.0;0.0;0.0;0.0;0.0;0.0;0.0;0.0;0.0;0.0;0.0;0.0;0.0;0.0;0.0;0.0;0.0;0.0;0.0;0.0;0.0;0.0,,,,,0.0,0.096531261218242
mp-758431,Rb3Mn16O32,Rb3 Mn16 O32,,-1.922243558615619,Triclinic,P-1,Mn;O;Rb,599.8140748733097,51.0033569,,16,8,FM,0.0;0.0;0.0;3.4;3.4;3.4;3.4;3.4;3.4;3.4;3.4;3.4;3.4;3.4;3.4;3.4;3.4;3.4;3.4;0.0;0.0;0.0;0.0;0.0;0.0;0.0;0.0;0.0;0.0;0.0;0.0;0.0;0.0;0.0;0.0;0.0;0.0;0.0;0.0;0.0;0.0;0.0;0.0;0.0;0.0;0.0;0.0;0.0;0.0;0.0;0.0,,,,,0.0,0.085031944124973
mp-861953,AlFeRh2,Al1 Fe1 Rh2,,-0.7247915624999981,Cubic,Fm-3m,Al;Fe;Rh,53.3034822275615,4.5393375,,3,2,FM,0.0;3.4;0.6000000000000001;0.6000000000000001,,,,,0.0,0.085160243014158
mp-3204978,Mn2FePd8Au5,Mn2 Fe1 Pd8 Au5,,-0.289727951185341,Orthorhombic,Immm,Au;Fe;Mn;Pd,250.14456373219124,13.224083,,3,3,FM,4.2;4.2;3.5;0.0;0.0;0.0;0.0;0.0;0.0;0.0;0.0;0.0;0.0;0.0;0.0;0.0,,,,,0.0,0.052865762112495
mp-20956,Gd(SiNi)2,Gd1 Si2 Ni2,,-0.8358520499999991,Tetragonal,I4/mmm,Gd;Ni;Si,75.06924096019416,7.386449,,3,2,FM,7.0;0.0;0.0;0.1;0.1,,,,,0.0,0.098395147007236
mp-1211603,La6Al5Fe9,La6 Al5 Fe9,,-0.21958829074999903,Tetragonal,I4/mcm,Al;Fe;La,807.1717518454619,34.4419158,,18,3,FM,0.0;0.0;0.0;0.0;0.0;0.0;0.0;0.0;0.0;0.0;0.0;0.0;0.0;0.0;0.0;0.0;0.0;0.0;0.0;0.0;0.0;0.0;2.2;2.2;2.2;2.2;2.2;2.2;2.2;2.2;2.0;2.0;2.0;2.0;2.0;2.0;2.0;2.0;1.8;1.8,,,,,0.0,0.042669872578239
mp-1207450,Zn9Fe4,Zn9 Fe4,,-0.018434345769232002,Cubic,I-43m,Fe;Zn,350.7951905531444,20.396821,,8,2,FM,0.0;0.0;0.0;0.0;0.0;0.0;0.0;0.0;0.0;0.0;0.0;0.0;0.0;0.0;0.0;0.0;0.0;0.0;2.9;2.9;2.9;2.9;2.5;2.5;2.5;2.5,,,,,0.0,0.058144528628906005
mp-542710,NaMn2O4,Na1 Mn2 O4,,-2.133646747709358,Orthorhombic,Pnma,Mn;Na;O,278.6511271444934,27.9948231,,8,2,FM,0.0;0.0;0.0;0.0;3.6;3.6;3.6;3.6;3.1;3.1;3.1;3.1;0.0;0.0;0.0;0.0;0.0;0.0;0.0;0.0;0.0;0.0;0.0;0.0;0.0;0.0;0.0;0.0,,,,,0.0,0.100465493848454
mp-622183,Co2PClO4,Co2 P1 Cl1 O4,,-1.959027435892856,Monoclinic,C2/c,Cl;Co;O;P,427.88201267411955,24.0000001,,8,3,FM,2.7;2.7;2.7;2.7;2.7;2.7;2.7;2.7;0.0;0.0;0.0;0.0;0.0;0.0;0.0;0.0;0.0;0.0;0.0;0.0;0.0;0.0;0.0;0.0;0.0;0.0;0.0;0.0;0.0;0.0;0.0;0.0,,,,,0.0,0.056090229056388004
mp-1190662,Eu2MnSi2O7,Eu2 Mn1 Si2 O7,,-3.15131592941092,Tetragonal,P-42_1m,Eu;Mn;O;Si,352.75161769449085,37.9756019,,6,2,FM,6.9;6.9;6.9;6.9;4.6;4.6;0.0;0.0;0.0;0.0;0.0;0.0;0.0;0.0;0.0;0.0;0.0;0.0;0.0;0.0;0.0;0.0;0.0;0.0,,,,,0.0,0.10765535860104701
mp-20028,FeBPbO4,Fe1 B1 Pb1 O4,,-1.912700981428571,Orthorhombic,Pnma,B;Fe;O;Pb,352.2111596136394,20.0000013,,8,4,FM,4.2;4.2;4.2;4.2;0.0;0.0;0.0;0.0;0.0;0.0;0.0;0.0;0.0;0.0;0.0;0.0;0.0;0.0;0.0;0.0;0.30000000000000004;0.30000000000000004;0.30000000000000004;0.30000000000000004;0.0;0.0;0.0;0.0,,,,,0.0,0.056784121553499003
mp-3202561,Mn2AlGeRh4,Mn2 Al1 Ge1 Rh4,,-0.788987252370688,Trigonal,R-3m,Al;Ge;Mn;Rh,109.28268005375055,9.1244024,,6,3,FM,3.9;3.9;0.0;0.0;0.4;0.30000000000000004;0.4;0.30000000000000004,,,,,0.0,0.083493581924529
mp-755536,RbFeO2,Rb1 Fe1 O2,,-1.6758784784375,Orthorhombic,Pna2_1,Fe;O;Rb,276.5875581783195,20.0,,12,6,FM,0.0;0.0;0.0;0.0;4.1;4.1;4.1;4.1;0.4;0.4;0.4;0.4;0.4;0.4;0.4;0.4,,,,,0.0,0.072309832487496
mp-19331,MnNiO3,Mn1 Ni1 O3,,-1.734884034146552,Trigonal,R-3,Mn;Ni;O,94.5143295599752,10.004428,,4,2,FM,3.0;3.0;1.6;1.6;0.0;0.0;0.0;0.0;0.0;0.0,,,,,0.0,0.105850912201113
mp-1106274,La(Co2B)6,La1 Co12 B6,,-0.25325089157894604,Trigonal,R-3m,B;Co;La,189.46843232900395,9.1804911,,12,2,FM,0.0;0.4;0.4;0.4;0.4;0.4;0.4;1.3;1.3;1.3;1.3;1.3;1.3;0.0;0.0;0.0;0.0;0.0;0.0,,,,,0.0,0.048453934975608
mp-3212798,BaNaFeO3,Ba1 Na1 Fe1 O3,,-2.122164421041667,Monoclinic,C2/c,Ba;Fe;Na;O,171.56789563275007,9.9999942,,8,3,FM,0.0;0.0;0.0;0.0;4.0;4.0;0.30000000000000004;0.2;0.30000000000000004;0.30000000000000004;0.2;0.30000000000000004,,,,,0.0,0.058285929095997
mp-1211859,Na3Mn5(Ge3O10)2,Na3 Mn5 Ge6 O20,,-2.12806570775862,Triclinic,P-1,Ge;Mn;Na;O,853.0945838235971,44.0048315,,10,6,FM,0.0;0.0;0.0;0.0;0.0;0.0;4.0;4.0;4.6;4.6;4.5;4.5;4.0;4.1;4.1;3.9;0.0;0.0;0.0;0.0;0.0;0.0;0.0;0.0;0.0;0.0;0.0;0.0;0.0;0.0;0.0;0.0;0.0;0.0;0.0;0.0;0.0;0.0;0.0;0.0;0.0;0.0;0.0;0.0;0.0;0.0;0.0;0.0;0.0;0.0;0.0;0.0;0.0;0.0;0.0;0.0;0.0;0.0;0.0;0.0;0.0;0.0;0.0;0.0;0.0;0.0;0.0;0.0,,,,,0.0,0.05158259392852801
mp-1205043,Rb7Fe7P8(HO9)4,Rb7 Fe7 P8 H4 O36,,-2.311486694429723,Monoclinic,P2_1/c,Fe;H;O;P;Rb,1800.9372915695355,70.0994147,,18,22,FM,0.0;0.0;0.0;0.0;0.0;0.0;0.0;0.0;0.0;0.0;0.0;0.0;0.0;0.0;4.4;4.4;4.4;4.4;4.4;4.4;4.4;4.4;4.4;4.4;4.4;4.4;4.4;4.4;0.0;0.0;0.0;0.0;0.0;0.0;0.0;0.0;0.0;0.0;0.0;0.0;0.0;0.0;0.0;0.0;0.0;0.0;0.0;0.0;0.0;0.0;0.0;0.0;0.0;0.0;0.0;0.0;0.0;0.0;0.0;0.0;0.0;0.0;0.0;0.0;0.0;0.0;0.0;0.0;0.0;0.0;0.0;0.0;0.0;0.0;0.0;0.0;0.0;0.0;0.0;0.0;0.0;0.0;0.0;0.0;0.0;0.0;0.0;0.0;0.0;0.0;0.0;0.0;0.0;0.0;0.0;0.0;0.0;0.0;0.0;0.0;0.0;0.0;0.0;0.0;0.0;0.0;0.0;0.0;0.0;0.0;0.0;0.0;0.0;0.0;0.0;0.0;0.4;0.4;0.4;0.4;0.0;0.0;0.0;0.0,,,,,0.0,0.038923850945919006
mp-1078518,Sr2NiIrO6,Sr2 Ni1 Ir1 O6,,-2.082495822,Tetragonal,I4/m,Ir;Ni;O;Sr,126.2851327855621,4.9991988,,8,4,FM,0.0;0.0;1.8;1.6;0.2;0.2;0.2;0.2;0.2;0.2,,,,,0.0,0.039586598119106
mp-3407,TlCr5Se8,Tl1 Cr5 Se8,,-0.81907036732143,Monoclinic,C2/m,Cr;Se;Tl,303.9935620714282,15.000674,,5,5,FM,0.0;3.1;3.1;3.1;3.1;3.1;0.0;0.0;0.0;0.0;0.0;0.0;0.0;0.0,,,,,0.0,0.049345367374837
mp-3202291,Mn2ZnGeRh4,Mn2 Zn1 Ge1 Rh4,,-0.5930088654956901,Trigonal,R-3m,Ge;Mn;Rh;Zn,109.30999603797514,8.7244074,,6,3,FM,3.8;3.8;0.0;0.0;0.30000000000000004;0.30000000000000004;0.30000000000000004;0.30000000000000004,,,,,0.0,0.07981344539587201
mp-1228982,CsMnFeF6,Cs1 Mn1 Fe1 F6,,-2.889407558065134,Orthorhombic,Imma,Cs;F;Fe;Mn,313.38999543946227,20.0005026,,4,2,FM,0.0;0.0;4.7;4.7;4.5;4.5;0.0;0.0;0.0;0.0;0.0;0.0;0.0;0.0;0.0;0.0;0.0;0.0,,,,,0.0,0.063819850317664
mp-19882,MnBPbO4,Mn1 B1 Pb1 O4,,-2.216731743156814,Orthorhombic,Pnma,B;Mn;O;Pb,362.89575246259017,16.0011856,,4,4,FM,3.9;3.9;3.9;3.9;0.0;0.0;0.0;0.0;0.0;0.0;0.0;0.0;0.0;0.0;0.0;0.0;0.0;0.0;0.0;0.0;0.0;0.0;0.0;0.0;0.0;0.0;0.0;0.0,,,,,0.0,0.044093063893464006
mp-1202958,Co2AsHO5,Co2 As1 H1 O5,,-1.506828889305556,Orthorhombic,Pnnm,As;Co;H;O,448.9409773468795,24.0001621,,8,2,FM,2.7;2.7;2.7;2.7;2.7;2.7;2.7;2.7;0.0;0.0;0.0;0.0;0.0;0.0;0.0;0.0;0.0;0.0;0.0;0.0;0.0;0.0;0.0;0.0;0.0;0.0;0.0;0.0;0.0;0.0;0.0;0.0;0.0;0.0;0.0;0.0,,,,,0.0,0.053459504280127
mp-557963,Cr4Si2Br2O7,Cr4 Si2 Br2 O7,,-2.339683496166666,Monoclinic,Pc,Br;Cr;O;Si,916.5980798802259,63.9979151,,16,8,FM,3.8;3.8;3.8;3.8;3.8;3.8;3.8;3.8;3.8;3.8;3.8;3.8;3.8;3.8;3.8;3.8;0.0;0.0;0.0;0.0;0.0;0.0;0.0;0.0;0.0;0.0;0.0;0.0;0.0;0.0;0.0;0.0;0.0;0.0;0.0;0.0;0.0;0.0;0.0;0.0;0.0;0.0;0.0;0.0;0.0;0.0;0.0;0.0;0.0;0.0;0.0;0.0;0.0;0.0;0.0;0.0;0.0;0.0;0.0;0.0,,,,,0.0,0.06982113153495001
mp-1172875,Mn2O3,Mn2 O3,,-2.013919843547413,Orthorhombic,Pbca,Mn;O,889.1007007723838,128.0030446,,32,5,FM,4.0;4.0;4.0;4.0;4.0;4.0;4.0;4.0;4.0;4.0;4.0;4.0;4.0;4.0;4.0;4.0;4.0;4.0;4.0;4.0;4.0;4.0;4.0;4.0;4.0;4.0;4.0;4.0;4.0;4.0;4.0;4.0;0.0;0.0;0.0;0.0;0.0;0.0;0.0;0.0;0.0;0.0;0.0;0.0;0.0;0.0;0.0;0.0;0.0;0.0;0.0;0.0;0.0;0.0;0.0;0.0;0.0;0.0;0.0;0.0;0.0;0.0;0.0;0.0;0.0;0.0;0.0;0.0;0.0;0.0;0.0;0.0;0.0;0.0;0.0;0.0;0.0;0.0;0.0;0.0,,,,,0.0,0.14396911900845402
mp-867850,ScMnRh2,Sc1 Mn1 Rh2,,-0.8135678873706911,Cubic,Fm-3m,Mn;Rh;Sc,61.15619517640275,4.4052418,,3,2,FM,0.0;4.0;0.4;0.4,,,,,0.0,0.07203263360798101
mp-3212812,Sr4HfFe2WO12,Sr4 Hf1 Fe2 W1 O12,,-2.864705098749999,Triclinic,P-1,Fe;Hf;O;Sr;W,253.07152769567708,9.9999779,,3,2,FM,0.0;0.0;0.0;0.0;0.0;4.1;4.1;0.1;0.0;0.0;0.0;0.0;0.0;0.0;0.0;0.0;0.0;0.0;0.0;0.0,,,,,0.0,0.039514432899876
mp-542443,TlCr3S5,Tl1 Cr3 S5,,-0.9604142626736101,Monoclinic,C2/m,Cr;S;Tl,349.0994623541827,18.0000017,,6,4,FM,0.0;0.0;3.0;3.0;3.0;3.0;3.0;3.0;0.0;0.0;0.0;0.0;0.0;0.0;0.0;0.0;0.0;0.0,,,,,0.0,0.051561241540205006
mp-1191681,Eu2Co12P7,Eu2 Co12 P7,,-0.6799005982142861,Hexagonal,P-6,Co;Eu;P,256.48317927750196,17.302107,,14,14,FM,6.6;6.6;0.2;0.30000000000000004;0.30000000000000004;0.30000000000000004;0.30000000000000004;0.30000000000000004;0.2;0.2;0.2;0.7000000000000001;0.7000000000000001;0.7000000000000001;0.0;0.0;0.0;0.0;0.0;0.0;0.0,,,,,0.0,0.067459032006461
mp-1208716,TaNi11(BO5)4,Ta1 Ni11 B4 O20,,-1.892517518305554,Monoclinic,C2/c,B;Ni;O;Ta,698.840051061561,41.9998312,,22,7,FM,0.0;0.0;1.8;1.8;1.8;1.8;1.7000000000000002;1.7000000000000002;1.8;1.8;1.8;1.8;1.8;1.8;1.7000000000000002;1.7000000000000002;1.7000000000000002;1.7000000000000002;1.7000000000000002;1.7000000000000002;1.8;1.8;1.8;1.8;0.0;0.0;0.0;0.0;0.0;0.0;0.0;0.0;0.0;0.0;0.0;0.0;0.0;0.0;0.0;0.0;0.0;0.0;0.0;0.0;0.0;0.0;0.0;0.0;0.0;0.0;0.0;0.0;0.0;0.0;0.0;0.0;0.0;0.0;0.0;0.0;0.0;0.0;0.0;0.0;0.0;0.0;0.0;0.0;0.0;0.0;0.0;0.0,,,,,0.0,0.06009934767791401
mp-3207061,MnOs2F12,Mn1 Os2 F12,,-2.112779124298851,Triclinic,P-1,F;Mn;Os,208.8580136274964,10.9998003,,3,2,FM,4.6;2.2;2.2;0.0;0.0;0.0;0.0;0.0;0.0;0.0;0.0;0.0;0.0;0.0;0.0,,,,,0.0,0.052666402925857
mp-17631,Fe2Ni(PO4)2,Fe2 Ni1 P2 O8,,-2.240946505329671,Monoclinic,P2_1/c,Fe;Ni;O;P,306.74705556053976,19.9998854,,6,2,FM,3.8;3.8;3.8;3.8;1.8;1.8;0.0;0.0;0.0;0.0;0.0;0.0;0.0;0.0;0.0;0.0;0.0;0.0;0.0;0.0;0.0;0.0;0.0;0.0;0.0;0.0,,,,,0.0,0.06519992625015701
mp-1221561,MnZn3(CrSe2)8,Mn1 Zn3 Cr8 Se16,,-0.846259150193964,Trigonal,R3m,Cr;Mn;Se;Zn,600.3912768669758,29.0007339,,9,5,FM,4.1;0.0;0.0;0.0;3.0;3.0;3.0;3.0;3.0;3.0;3.0;3.0;0.0;0.0;0.0;0.0;0.0;0.0;0.0;0.0;0.0;0.0;0.0;0.0;0.0;0.0;0.0;0.0,,,,,0.0,0.048303056718836
mp-21871,CeCrS3,Ce1 Cr1 S3,,-1.713661324687498,Orthorhombic,Pnma,Ce;Cr;S,387.85072899440706,15.9356442,,8,2,FM,1.0;1.0;1.0;1.0;3.0;3.0;3.0;3.0;0.0;0.0;0.0;0.0;0.0;0.0;0.0;0.0;0.0;0.0;0.0;0.0,,,,,0.0,0.04108705491238