ID,pretty_formula,compound,energy_cell,energy_atom,lattice_system,spacegroup,species,volume_cell,moment_cell,mag_field,mag_sites_MP,mag_sites,mag_type,magmom,comment1,icsd_ids,doi,comment2,e_above_hull,magnetization_norm_vol
mp-542161,Mn3Ag2(P2O7)2,Mn3 Ag2 P4 O14,,-2.313328752639036,Triclinic,P-1,Ag;Mn;O;P,570.4981704910543,30.0007828,,6,3,FM,4.7;4.7;4.7;4.7;4.7;4.7;0.0;0.0;0.0;0.0;0.0;0.0;0.0;0.0;0.0;0.0;0.0;0.0;0.0;0.0;0.0;0.0;0.0;0.0;0.0;0.0;0.0;0.0;0.0;0.0;0.0;0.0;0.0;0.0;0.0;0.0;0.0;0.0;0.0;0.0;0.0;0.0;0.0;0.0;0.0;0.0,,,,,0.0,0.052586992126858
mp-27338,SrFeF5,Sr1 Fe1 F5,,-3.295442439107143,Monoclinic,P2_1/c,F;Fe;Sr,745.9608218132206,40.0000005,,8,2,FM,0.0;0.0;0.0;0.0;0.0;0.0;0.0;0.0;4.3;4.3;4.3;4.3;4.3;4.3;4.3;4.3;0.0;0.0;0.0;0.0;0.0;0.0;0.0;0.0;0.0;0.0;0.0;0.0;0.0;0.0;0.0;0.0;0.0;0.0;0.0;0.0;0.0;0.0;0.0;0.0;0.0;0.0;0.0;0.0;0.0;0.0;0.0;0.0;0.0;0.0;0.0;0.0;0.0;0.0;0.0;0.0,,,,,0.0,0.053622119728448006
mp-571370,Fe2NiP,Fe2 Ni1 P1,,-0.30479600324404604,Tetragonal,I-4,Fe;Ni;P,177.53567563556354,19.1973784,,12,12,FM,2.7;2.1;2.7;2.7;2.1;2.7;2.1;2.1;0.2;0.2;0.2;0.2;0.0;0.0;0.0;0.0,,,,,0.009910140937499002,0.108132511008139
mp-3204903,Na3Ni2RuO6,Na3 Ni2 Ru1 O6,,-1.493971718125,Monoclinic,C2/m,Na;Ni;O;Ru,124.91246175973068,6.9973506,,9,4,FM,0.0;0.0;0.0;1.7000000000000002;1.7000000000000002;2.1;0.2;0.2;0.2;0.2;0.2;0.2,,,,,0.0,0.05601803456135
mp-1225089,GaFe2Co4Si,Ga1 Fe2 Co4 Si1,,-0.29229633718750003,Trigonal,R-3m,Co;Fe;Ga;Si,91.47045688951181,10.7974103,,6,3,FM,0.0;2.9;2.9;1.3;1.3;1.3;1.3;0.0,,,,,0.0,0.11804259721849102
mp-3203764,Mn4Cu2GePd9,Mn4 Cu2 Ge1 Pd9,,-0.48116385237068804,Tetragonal,I4/mmm,Cu;Ge;Mn;Pd,230.42070980858298,18.6273919,,6,2,FM,4.2;4.2;4.2;4.2;0.1;0.1;0.0;0.0;0.0;0.0;0.0;0.0;0.0;0.0;0.0;0.0,,,,,0.0,0.080840788640371
mp-1226004,CoNiPt2,Co1 Ni1 Pt2,,-0.142023380000004,Tetragonal,P4/mmm,Co;Ni;Pt,53.00930807629847,3.7057652,,4,3,FM,2.2;1.0;0.30000000000000004;0.30000000000000004,,,,,0.00023282124999400003,0.06990782061644901
mp-29905,Mn9(NbGe4)2,Mn9 Nb2 Ge8,,-0.19362110349364803,Orthorhombic,Pnma,Ge;Mn;Nb,1073.9832051118024,85.276219,,36,7,FM,2.1;2.1;2.1;2.1;2.1;2.1;2.1;2.1;2.3;2.3;2.3;2.3;2.3;2.3;2.3;2.3;2.7;2.7;2.7;2.7;2.4;2.4;2.4;2.4;2.9;2.9;2.9;2.9;3.0;3.0;3.0;3.0;2.4;2.4;2.4;2.4;0.0;0.0;0.0;0.0;0.0;0.0;0.0;0.0;0.0;0.0;0.0;0.0;0.0;0.0;0.0;0.0;0.0;0.0;0.0;0.0;0.0;0.0;0.0;0.0;0.0;0.0;0.0;0.0;0.0;0.0;0.0;0.0;0.0;0.0;0.0;0.0;0.0;0.0;0.0;0.0,,,,,0.0,0.079401818011784
mp-12178,KCr5S8,K1 Cr5 S8,,-1.118472279732143,Monoclinic,C2/m,Cr;K;S,263.5104420797055,14.9999999,,5,3,FM,0.0;3.0;3.0;3.0;3.0;3.0;0.0;0.0;0.0;0.0;0.0;0.0;0.0;0.0,,,,,0.0,0.056923740029485005
mp-1213761,CrNi2BO5,Cr1 Ni2 B1 O5,,-2.041855450185186,Orthorhombic,Pbam,B;Cr;Ni;O,345.571928112693,27.9982336,,12,4,FM,3.0;3.0;3.0;3.0;1.8;1.8;1.8;1.8;1.8;1.8;1.8;1.8;0.0;0.0;0.0;0.0;0.0;0.0;0.0;0.0;0.0;0.0;0.0;0.0;0.0;0.0;0.0;0.0;0.0;0.0;0.0;0.0;0.0;0.0;0.0;0.0,,,,,0.0,0.081019988379581
mp-3208540,LiTaMnO4,Li1 Ta1 Mn1 O4,,-2.688626997283251,Tetragonal,P4_322,Li;Mn;O;Ta,323.8963858996711,20.0000473,,4,4,FM,0.0;0.0;0.0;0.0;0.0;0.0;0.0;0.0;4.5;4.5;4.5;4.5;0.0;0.0;0.0;0.0;0.0;0.0;0.0;0.0;0.0;0.0;0.0;0.0;0.0;0.0;0.0;0.0,,,,,0.0,0.06174828794229
mp-1849,Mn2P,Mn2 P1,,-0.513148089057198,Hexagonal,P-62m,Mn;P,103.57003898873002,10.3898666,,6,2,FM,3.3;3.3;3.3;0.4;0.4;0.4;0.0;0.0;0.0,,,,,0.0,0.10031729930246101
mp-600124,MnNiSb,Mn1 Ni1 Sb1,,-0.42720125149425003,Cubic,F-43m,Mn;Ni;Sb,51.068903880968065,4.0508132,,2,2,FM,3.9;0.2;0.0,,,,,0.0,0.079320543269181
mp-1198666,Rb7EuFe6(P4O17)2,Rb7 Eu1 Fe6 P8 O34,,-2.499969348475765,Triclinic,P-1,Eu;Fe;O;P;Rb,856.6948760822186,35.9999977,,9,21,FM,0.0;0.0;0.0;0.0;0.0;0.0;0.0;6.3;4.4;4.4;4.3;4.3;4.4;4.4;0.0;0.0;0.0;0.0;0.0;0.0;0.0;0.0;0.0;0.0;0.0;0.0;0.0;0.0;0.0;0.0;0.0;0.0;0.30000000000000004;0.30000000000000004;0.0;0.0;0.0;0.0;0.0;0.0;0.0;0.0;0.0;0.0;0.0;0.0;0.0;0.0;0.0;0.0;0.0;0.0;0.0;0.0;0.0;0.0,,,,,0.0,0.042021959865842
mp-1222096,Mn2GaCo4Ge,Mn2 Ga1 Co4 Ge1,,-0.249673108545259,Trigonal,R-3m,Co;Ga;Ge;Mn,93.99869284748267,9.027848,,6,3,FM,2.9;2.9;0.0;0.9;0.8;0.9;0.8;0.0,,,,,0.0,0.096042271722311
mp-542299,Rb2Co2O3,Rb2 Co2 O3,,-1.252198990535713,Orthorhombic,Pnma,Co;O;Rb,551.297687496201,24.0140988,,20,4,FM,0.0;0.0;0.0;0.0;0.0;0.0;0.0;0.0;2.5;2.5;2.5;2.5;2.6;2.6;2.6;2.6;0.30000000000000004;0.30000000000000004;0.30000000000000004;0.30000000000000004;0.30000000000000004;0.30000000000000004;0.30000000000000004;0.30000000000000004;0.30000000000000004;0.30000000000000004;0.30000000000000004;0.30000000000000004,,,,,0.08511081571428,0.043559222802227
mp-1047886,CaMn3P3O13,Ca1 Mn3 P3 O13,,-2.6051158973860833,Monoclinic,P2_1/m,Ca;Mn;O;P,498.7746171121461,24.0016014,,6,3,FM,0.0;0.0;3.8;3.8;3.9;4.0;3.9;4.0;0.0;0.0;0.0;0.0;0.0;0.0;0.0;0.0;0.0;0.0;0.0;0.0;0.0;0.0;0.0;0.0;0.0;0.0;0.0;0.0;0.0;0.0;0.0;0.0;0.0;0.0;0.0;0.0;0.0;0.0;0.0;0.0,,,,,0.0,0.048121136434261004
mp-3202736,Na3Fe2RhO6,Na3 Fe2 Rh1 O6,,-1.647941865208332,Monoclinic,C2/m,Fe;Na;O;Rh,126.16947549215315,9.9999993,,8,3,FM,0.0;0.0;0.0;4.1;4.1;0.0;0.2;0.2;0.2;0.2;0.2;0.2,,,,,0.0,0.07925846771568701
mp-540828,FeClO,Fe1 Cl1 O1,,-1.3306952104166672,Orthorhombic,Pmmn,Cl;Fe;O,103.12384033276442,9.9999991,,6,3,FM,4.1;4.1;0.2;0.2;0.5;0.5,,,,,0.0,0.09697077870385301
mp-1222104,Mn4Co4Si3Ge,Mn4 Co4 Si3 Ge1,,-0.38138275722701204,Monoclinic,Pm,Co;Ge;Mn;Si,146.94416321866055,14.2062873,,8,8,FM,3.0;3.0;3.0;3.0;0.7000000000000001;0.6000000000000001;0.6000000000000001;0.7000000000000001;0.0;0.0;0.0;0.0,,,,,0.0,0.09667813262416
mp-1181496,Gd(CoB)4,Gd1 Co4 B4,,-0.46833444796296203,Tetragonal,P4_2/nmc,B;Co;Gd,176.1025296143138,14.7251758,,10,2,FM,6.9;6.9;0.1;0.1;0.1;0.1;0.1;0.1;0.1;0.1;0.0;0.0;0.0;0.0;0.0;0.0;0.0;0.0,,,,,0.0,0.08361706008567801
mp-27510,MgMn2O4,Mg1 Mn2 O4,,-2.387841806280787,Tetragonal,I4_1/amd,Mg;Mn;O,152.9001185355584,15.9999994,,4,2,FM,0.0;0.0;3.7;3.7;3.7;3.7;0.0;0.0;0.0;0.0;0.0;0.0;0.0;0.0,,,,,0.010050487785729001,0.104643472832096
mp-601848,Fe11Co5,Fe11 Co5,,-0.150085168124999,Tetragonal,P4/mmm,Co;Fe,182.6795915812145,38.6373377,,16,7,FM,2.9;2.9;2.9;2.9;2.7;2.9;2.9;2.9;2.6;2.6;2.9;1.8;1.8;1.8;1.8;1.8,,,,,0.0,0.211503306776459
mp-768472,Mn2(SO4)3,Mn2 S3 O12,,-1.6356303952884121,Monoclinic,P2_1/c,Mn;O;S,811.9094366829172,32.0000003,,8,2,FM,3.8;3.8;3.7;3.7;3.7;3.7;3.8;3.8;0.0;0.0;0.0;0.0;0.0;0.0;0.0;0.0;0.0;0.0;0.0;0.0;0.0;0.0;0.0;0.0;0.0;0.0;0.0;0.0;0.0;0.0;0.0;0.0;0.0;0.0;0.0;0.0;0.0;0.0;0.0;0.0;0.0;0.0;0.0;0.0;0.0;0.0;0.0;0.0;0.0;0.0;0.0;0.0;0.0;0.0;0.0;0.0;0.0;0.0;0.0;0.0;0.0;0.0;0.0;0.0;0.0;0.0;0.0;0.0,,,,,0.0,0.039413263172228
mp-3215509,Mn3Mo(Pd3Pt)3,Mn3 Mo1 Pd9 Pt3,,-0.38881778021551405,Orthorhombic,Fmm2,Mn;Mo;Pd;Pt,238.8720217235193,14.3502005,,4,3,FM,4.2;4.2;4.2;0.1;0.0;0.0;0.0;0.0;0.0;0.0;0.0;0.0;0.0;0.0;0.0;0.0,,,,,0.0,0.060074848433315
mp-3202759,AlFe2Co4Si,Al1 Fe2 Co4 Si1,,-0.438778318125001,Trigonal,R-3m,Al;Co;Fe;Si,89.01587801814532,11.0003786,,6,3,FM,0.0;3.0;3.0;1.3;1.4;1.3;1.4;0.0,,,,,0.0,0.123577712706014
mp-1192249,Mn3TeP2Pb3O14,Mn3 Te1 P2 Pb3 O14,,-1.948759797256551,Trigonal,P321,Mn;O;P;Pb;Te,667.6962126316596,30.0000006,,3,2,FM,4.5;4.5;4.5;0.0;0.0;0.0;0.0;0.0;0.0;0.0;0.0;0.0;0.0;0.0;0.0;0.0;0.0;0.0;0.0;0.0;0.0;0.0;0.0,,,,,0.038922756565213004,0.044930613701937
mp-1219598,RbCrCoF6,Rb1 Cr1 Co1 F6,,-2.85196198861111,Orthorhombic,Imma,Co;Cr;F;Rb,286.04267625651505,12.0001105,,4,2,FM,0.0;0.0;2.9;2.9;2.8;2.8;0.0;0.0;0.0;0.0;0.0;0.0;0.0;0.0;0.0;0.0;0.0;0.0,,,,,0.0,0.041952168316446006
mp-3207999,MgMn3P6N13,Mg1 Mn3 P6 N13,,-0.765544732176322,Monoclinic,Cm,Mg;Mn;N;P,265.1889159013803,14.00005,,3,2,FM,0.0;4.2;4.3;4.2;0.0;0.0;0.0;0.0;0.0;0.0;0.0;0.0;0.0;0.0;0.0;0.0;0.0;0.0;0.0;0.0;0.0;0.0;0.0,,,,,0.0,0.052792741930459006
mp-1173592,NaMnFe(PO4)2,Na1 Mn1 Fe1 P2 O8,,-2.476233769122773,Triclinic,P-1,Fe;Mn;Na;O;P,920.9564396604067,60.0001639,,12,6,FM,0.0;0.0;0.0;0.0;0.0;0.0;4.7;4.7;4.7;4.7;4.7;4.7;4.4;4.4;4.4;4.4;4.4;4.4;0.0;0.0;0.0;0.0;0.0;0.0;0.0;0.0;0.0;0.0;0.0;0.0;0.0;0.0;0.0;0.0;0.0;0.0;0.0;0.0;0.0;0.0;0.0;0.0;0.0;0.0;0.0;0.0;0.0;0.0;0.0;0.0;0.0;0.0;0.0;0.0;0.0;0.0;0.0;0.0;0.0;0.0;0.0;0.0;0.0;0.0;0.0;0.0;0.0;0.0;0.0;0.0;0.0;0.0;0.0;0.0;0.0;0.0;0.0;0.0,,,,,0.0,0.065149839141278
mp-1080749,CsFeO2,Cs1 Fe1 O2,,-1.637481460624997,Cubic,Fd-3m,Cs;Fe;O,159.0833671836937,9.9999997,,6,2,FM,0.0;0.0;4.1;4.1;0.4;0.4;0.4;0.4,,,,,0.0,0.06286012093554
mp-1224486,K3Mn4P5H3O20,K3 Mn4 P5 H3 O20,,-2.43414055929824,Monoclinic,Cc,H;K;Mn;O;P,907.907365391003,38.0018521,,8,4,FM,0.0;0.0;0.0;0.0;0.0;0.0;4.7;4.7;4.7;4.7;3.9;3.9;4.7;4.7;0.0;0.0;0.0;0.0;0.0;0.0;0.0;0.0;0.0;0.0;0.0;0.0;0.0;0.0;0.0;0.0;0.0;0.0;0.0;0.0;0.0;0.0;0.0;0.0;0.0;0.0;0.0;0.0;0.0;0.0;0.0;0.0;0.0;0.0;0.0;0.0;0.0;0.0;0.0;0.0;0.0;0.0;0.0;0.0;0.0;0.0;0.0;0.0;0.0;0.0;0.0;0.0;0.0;0.0;0.0;0.0,,,,,0.0,0.041856530245939
mp-541662,Cs3Fe2F9,Cs3 Fe2 F9,,-2.846875861428569,Hexagonal,P6_3/mmc,Cs;F;Fe,505.7920976463166,19.9999991,,4,2,FM,0.0;0.0;0.0;0.0;0.0;0.0;4.2;4.2;4.2;4.2;0.0;0.0;0.0;0.0;0.0;0.0;0.0;0.0;0.0;0.0;0.0;0.0;0.0;0.0;0.0;0.0;0.0;0.0,,,,,0.0,0.039541936683212
mp-1222120,Mn4Fe8Si3Ge,Mn4 Fe8 Si3 Ge1,,-0.278245957295259,Trigonal,R-3m,Fe;Ge;Mn;Si,177.32062177016618,11.9910332,,10,6,FM,2.5;2.5;2.5;2.5;0.0;0.4;0.5;0.1;0.1;0.4;0.5;0.0;0.0;0.0;0.0;0.0,,,,,0.0,0.06762345563812701
mp-542397,LuMn2O5,Lu1 Mn2 O5,,-2.787372556797772,Orthorhombic,Pbam,Lu;Mn;O,335.60508090052355,28.0000021,,8,2,FM,0.0;0.0;0.0;0.0;3.0;3.0;3.0;3.0;3.6;3.6;3.6;3.6;0.0;0.0;0.0;0.0;0.0;0.0;0.0;0.0;0.0;0.0;0.0;0.0;0.0;0.0;0.0;0.0;0.0;0.0;0.0;0.0,,,,,0.0,0.08343140105289201
mp-417,MnRh,Mn1 Rh1,,-0.49576254724138,Cubic,Pm-3m,Mn;Rh,27.74904245111638,4.1884191,,2,2,FM,3.7;0.4,,,,,0.0,0.15093922997085202
mp-764074,Na2FeO3,Na2 Fe1 O3,,-1.697433631875,Monoclinic,Cc,Fe;Na;O,135.87237108425325,7.9999998,,6,4,FM,0.0;0.0;0.0;0.0;3.2;3.2;0.30000000000000004;0.30000000000000004;0.2;0.0;0.2;0.0,,,,,0.0,0.058878782611656
mp-627439,Mn3GaN,Mn3 Ga1 N1,,-0.442840044439657,Cubic,Pm-3m,Ga;Mn;N,63.77125897629563,10.4905472,,3,2,FM,3.5;3.5;3.5;0.0;0.0,,,,,0.0,0.16450274572593002
mp-1364623,CaMn2P2O9,Ca1 Mn2 P2 O9,,-2.672352445010556,Orthorhombic,Pnma,Ca;Mn;O;P,700.4201149359972,31.9999184,,8,2,FM,0.0;0.0;0.0;0.0;3.8;3.8;3.8;3.8;4.2;4.2;4.2;4.2;0.0;0.0;0.0;0.0;0.0;0.0;0.0;0.0;0.0;0.0;0.0;0.0;0.0;0.0;0.0;0.0;0.0;0.0;0.0;0.0;0.0;0.0;0.0;0.0;0.0;0.0;0.0;0.0;0.0;0.0;0.0;0.0;0.0;0.0;0.0;0.0;0.0;0.0;0.0;0.0;0.0;0.0;0.0;0.0,,,,,0.0,0.045686749591599005
mp-3208815,TaMn4Si6Tc5,Ta1 Mn4 Si6 Tc5,,-0.5212023409540191,Orthorhombic,Amm2,Mn;Si;Ta;Tc,207.3133124706491,11.601615,,8,4,FM,0.0;2.7;2.7;2.7;2.7;0.0;0.0;0.0;0.0;0.0;0.0;0.0;0.30000000000000004;0.30000000000000004;0.30000000000000004;0.30000000000000004,,,,,0.0,0.055961746314012004
mp-21893,MnTe2,Mn1 Te2,,-0.42263970816092405,Cubic,Pa-3,Mn;Te,342.91127365874667,19.9118944,,4,2,FM,4.4;4.4;4.4;4.4;0.0;0.0;0.0;0.0;0.0;0.0;0.0;0.0,,,,,0.0,0.058067190931190005
mp-1228376,Ba3Fe2WO9,Ba3 Fe2 W1 O9,,-2.522751010666667,Hexagonal,P6_3mc,Ba;Fe;O;W,427.786929168225,20.0034981,,10,5,FM,0.0;0.0;0.0;0.0;0.0;0.0;4.4;4.4;4.3;4.3;0.0;0.0;0.0;0.0;0.0;0.0;0.0;0.0;0.0;0.0;0.0;0.2;0.2;0.2;0.0;0.0;0.0;0.2;0.2;0.2,,,,,0.0,0.046760423790633006