ID,pretty_formula,compound,energy_cell,energy_atom,lattice_system,spacegroup,species,volume_cell,moment_cell,mag_field,mag_sites_MP,mag_sites,mag_type,magmom,comment1,icsd_ids,doi,comment2,e_above_hull,magnetization_norm_vol
mp-1199228,Fe3P2(HO5)2,Fe3 P2 H2 O10,,-2.090372608928571,Monoclinic,P2_1/c,Fe;H;O;P,373.24278051773007,28.000003,,6,2,FM,3.8;3.8;4.4;4.4;4.4;4.4;0.0;0.0;0.0;0.0;0.0;0.0;0.0;0.0;0.0;0.0;0.0;0.0;0.0;0.0;0.0;0.0;0.0;0.0;0.0;0.0;0.0;0.0;0.0;0.0;0.0;0.0;0.0;0.0,,,,,0.0,0.07501820386495
mp-1221879,MnFeBiO5,Mn1 Fe1 Bi1 O5,,-1.7546241047413802,Orthorhombic,Pbam,Bi;Fe;Mn;O,390.9003228390218,32.0008588,,8,2,FM,3.2;3.2;3.2;3.2;4.3;4.3;4.3;4.3;0.0;0.0;0.0;0.0;0.0;0.0;0.0;0.0;0.0;0.0;0.0;0.0;0.0;0.0;0.0;0.0;0.0;0.0;0.0;0.0;0.0;0.0;0.0;0.0,,,,,0.0,0.081864498262843
mp-2884,Cs2Mn3S4,Cs2 Mn3 S4,,-1.271234085522029,Orthorhombic,Ibam,Cs;Mn;S,500.5668097699611,30.0000005,,6,2,FM,0.0;0.0;0.0;0.0;4.4;4.4;4.4;4.4;4.4;4.4;0.0;0.0;0.0;0.0;0.0;0.0;0.0;0.0,,,,,0.0,0.059932060844758
mp-865191,FeGeRu2,Fe1 Ge1 Ru2,,-0.23899945249999902,Cubic,Fm-3m,Fe;Ge;Ru,53.022539977957116,4.1730335,,3,2,FM,3.2;0.0;0.5;0.5,,,,,0.0,0.078703010111074
mp-18822,Mn2PO4F,Mn2 P1 O4 F1,,-2.652584821938116,Monoclinic,C2/c,F;Mn;O;P,398.28288989909015,40.0025371,,8,2,FM,4.7;4.7;4.7;4.7;4.7;4.7;4.7;4.7;0.0;0.0;0.0;0.0;0.0;0.0;0.0;0.0;0.0;0.0;0.0;0.0;0.0;0.0;0.0;0.0;0.0;0.0;0.0;0.0;0.0;0.0;0.0;0.0,,,,,0.0,0.10043749835734801
mp-1222032,Mn2InSbO6,Mn2 In1 Sb1 O6,,-2.023156045752873,Triclinic,P1,In;Mn;O;Sb,259.1892627319183,20.0006207,,4,4,FM,4.6;4.6;4.6;4.6;0.0;0.0;0.0;0.0;0.0;0.0;0.0;0.0;0.0;0.0;0.0;0.0;0.0;0.0;0.0;0.0,,,,,0.0,0.077166085080796
mp-1195778,K2Mn3(AsO4)3,K2 Mn3 As3 O12,,-1.823649076422413,Monoclinic,C2/c,As;K;Mn;O,516.6294258350465,27.9999997,,6,2,FM,0.0;0.0;0.0;0.0;4.2;4.2;4.2;4.2;4.5;4.5;0.0;0.0;0.0;0.0;0.0;0.0;0.0;0.0;0.0;0.0;0.0;0.0;0.0;0.0;0.0;0.0;0.0;0.0;0.0;0.0;0.0;0.0;0.0;0.0;0.0;0.0;0.0;0.0;0.0;0.0,,,,,0.0,0.054197454306329
mp-1194649,RbNa2Mn3P4ClO14,Rb1 Na2 Mn3 P4 Cl1 O14,,-2.572509073504925,Monoclinic,C2/c,Cl;Mn;Na;O;P;Rb,696.1025633388239,29.9998946,,6,2,FM,0.0;0.0;0.0;0.0;0.0;0.0;4.7;4.7;4.7;4.7;4.7;4.7;0.0;0.0;0.0;0.0;0.0;0.0;0.0;0.0;0.0;0.0;0.0;0.0;0.0;0.0;0.0;0.0;0.0;0.0;0.0;0.0;0.0;0.0;0.0;0.0;0.0;0.0;0.0;0.0;0.0;0.0;0.0;0.0;0.0;0.0;0.0;0.0;0.0;0.0,,,,,0.0,0.043096946024888005
mp-3212229,Fe2AgPbF9,Fe2 Ag1 Pb1 F9,,-2.360261548461538,Monoclinic,C2/c,Ag;F;Fe;Pb,349.85692569592004,20.0000223,,4,2,FM,4.3;4.3;4.3;4.3;0.0;0.0;0.0;0.0;0.0;0.0;0.0;0.0;0.0;0.0;0.0;0.0;0.0;0.0;0.0;0.0;0.0;0.0;0.0;0.0;0.0;0.0,,,,,0.0,0.057166289505965
mp-1226363,Cr2S2BrCl,Cr2 S2 Br1 Cl1,,-1.19218155,Orthorhombic,Pmm2,Br;Cl;Cr;S,136.02508855664468,5.9992541,,2,2,FM,2.9;2.9;0.0;0.0;0.0;0.0,,,,,0.0,0.044104026423785005
mp-1197505,CsFe2F6,Cs1 Fe2 F6,,-2.700738286944444,Orthorhombic,Pnma,Cs;F;Fe,555.0615951148031,36.0000006,,8,2,FM,0.0;0.0;0.0;0.0;4.0;4.0;4.0;4.0;4.1;4.1;4.1;4.1;0.0;0.0;0.0;0.0;0.0;0.0;0.0;0.0;0.0;0.0;0.0;0.0;0.0;0.0;0.0;0.0;0.0;0.0;0.0;0.0;0.0;0.0;0.0;0.0,,,,,0.0,0.064857667899999
mp-619092,K2Fe2As2O9,K2 Fe2 As2 O9,,-1.876597094133334,Orthorhombic,Pnma,As;Fe;K;O,925.3510025008782,39.9992754,,12,9,FM,0.0;0.0;0.0;0.0;0.0;0.0;0.0;0.0;4.4;4.4;4.4;4.4;4.4;4.4;4.4;4.4;0.0;0.0;0.0;0.0;0.0;0.0;0.0;0.0;0.0;0.0;0.0;0.0;0.0;0.0;0.0;0.30000000000000004;0.30000000000000004;0.0;0.0;0.0;0.0;0.0;0.0;0.0;0.0;0.30000000000000004;0.0;0.0;0.0;0.0;0.0;0.0;0.0;0.0;0.0;0.0;0.0;0.0;0.0;0.30000000000000004;0.0;0.0;0.0;0.0,,,,,0.0,0.043226057238709
mp-3214627,FeNi2P3PbO12,Fe1 Ni2 P3 Pb1 O12,,-2.051802979943609,Orthorhombic,Imma,Fe;Ni;O;P;Pb,445.62753089032736,18.000005,,6,2,FM,4.2;4.2;1.7000000000000002;1.7000000000000002;1.7000000000000002;1.7000000000000002;0.0;0.0;0.0;0.0;0.0;0.0;0.0;0.0;0.0;0.0;0.0;0.0;0.0;0.0;0.0;0.0;0.0;0.0;0.0;0.0;0.0;0.0;0.0;0.0;0.0;0.0;0.0;0.0;0.0;0.0;0.0;0.0,,,,,0.0,0.040392488686768
mp-3211691,BeFe5B2,Be1 Fe5 B2,,-0.2250372796875,Tetragonal,I4/mcm,B;Be;Fe,148.03237530316986,22.6299309,,10,2,FM,0.0;0.0;2.4;2.5;2.5;2.5;2.5;2.5;2.5;2.5;2.4;2.5;0.0;0.0;0.0;0.0,,,,,0.0,0.15287149756027302
mp-18820,Sr3Fe2O7,Sr3 Fe2 O7,,-2.431419458437501,Tetragonal,I4/mmm,Fe;O;Sr,147.63969801080836,7.9398442,,2,2,FM,0.0;0.0;0.0;3.4;3.4;0.0;0.0;0.0;0.0;0.0;0.0;0.0,,,,,0.0,0.053778518291325
mp-16185,Mn6AgP7O24,Mn6 Ag1 P7 O24,,-2.503213723993497,Monoclinic,P2_1/m,Ag;Mn;O;P,936.6969794435381,60.0001847,,12,3,FM,4.7;4.7;4.7;4.7;4.7;4.7;4.7;4.7;4.7;4.7;4.7;4.7;0.0;0.0;0.0;0.0;0.0;0.0;0.0;0.0;0.0;0.0;0.0;0.0;0.0;0.0;0.0;0.0;0.0;0.0;0.0;0.0;0.0;0.0;0.0;0.0;0.0;0.0;0.0;0.0;0.0;0.0;0.0;0.0;0.0;0.0;0.0;0.0;0.0;0.0;0.0;0.0;0.0;0.0;0.0;0.0;0.0;0.0;0.0;0.0;0.0;0.0;0.0;0.0;0.0;0.0;0.0;0.0;0.0;0.0;0.0;0.0;0.0;0.0;0.0;0.0,,,,,0.0,0.064055063715102
mp-19336,Nd2MnCoO6,Nd2 Mn1 Co1 O6,,-2.794713231293103,Monoclinic,P2_1/c,Co;Mn;Nd;O,238.5081897607304,12.0001854,,4,2,FM,0.0;0.0;0.0;0.0;3.3;3.3;2.6;2.6;0.0;0.0;0.0;0.0;0.0;0.0;0.0;0.0;0.0;0.0;0.0;0.0,,,,,0.0,0.05031351507065
mp-555494,NaTbMnWO6,Na1 Tb1 Mn1 W1 O6,,-2.6879429475977,Monoclinic,P2_1,Mn;Na;O;Tb;W,249.1313393459376,9.9996258,,4,2,FM,0.0;0.0;0.0;0.0;4.6;4.6;0.1;0.1;0.0;0.0;0.0;0.0;0.0;0.0;0.0;0.0;0.0;0.0;0.0;0.0,,,,,0.0,0.040137968295168004
mp-3209600,K2MnVF7,K2 Mn1 V1 F7,,-3.141029358816615,Orthorhombic,Imma,F;K;Mn;V,330.5407664568831,14.0002508,,4,2,FM,0.0;0.0;0.0;0.0;4.6;4.6;1.9;1.9;0.0;0.0;0.0;0.0;0.0;0.0;0.0;0.0;0.0;0.0;0.0;0.0;0.0;0.0,,,,,0.0,0.042355594893999
mp-19511,Li5FeO4,Li5 Fe1 O4,,-2.023510980583333,Orthorhombic,Pbca,Fe;Li;O,751.988598400936,40.0000021,,24,5,FM,0.0;0.0;0.0;0.0;0.0;0.0;0.0;0.0;0.0;0.0;0.0;0.0;0.0;0.0;0.0;0.0;0.0;0.0;0.0;0.0;0.0;0.0;0.0;0.0;0.0;0.0;0.0;0.0;0.0;0.0;0.0;0.0;0.0;0.0;0.0;0.0;0.0;0.0;0.0;0.0;3.9;3.9;3.9;3.9;3.9;3.9;3.9;3.9;0.0;0.0;0.0;0.0;0.0;0.0;0.0;0.0;0.2;0.2;0.2;0.2;0.2;0.2;0.2;0.2;0.2;0.2;0.2;0.2;0.0;0.2;0.2;0.2;0.0;0.0;0.0;0.0;0.0;0.0;0.0;0.2,,,,,0.0,0.053192298639976
mp-1219591,RbCoNiF6,Rb1 Co1 Ni1 F6,,-2.453912864722221,Orthorhombic,Imma,Co;F;Ni;Rb,275.6151953061709,11.9980877,,4,2,FM,0.0;0.0;3.3;3.3;1.9;1.9;0.0;0.0;0.0;0.0;0.0;0.0;0.0;0.0;0.0;0.0;0.0;0.0,,,,,0.0,0.043532025462789004
mp-601842,Fe9Co7,Fe9 Co7,,-0.20225863062499902,Cubic,Pm-3m,Co;Fe,182.58218119015507,38.4532628,,16,5,FM,3.0;3.0;3.0;3.0;3.0;3.0;3.0;3.0;2.6;1.8;1.8;1.8;1.8;1.8;1.8;1.8,,,,,0.0,0.21060797143151502
mp-540583,SrCr2O4,Sr1 Cr2 O4,,-2.6615942617857122,Orthorhombic,Pmmn,Cr;O;Sr,354.2241197828693,23.9999997,,8,2,FM,0.0;0.0;0.0;0.0;2.9;2.9;2.9;2.9;2.9;2.9;2.9;2.9;0.0;0.0;0.0;0.0;0.0;0.0;0.0;0.0;0.0;0.0;0.0;0.0;0.0;0.0;0.0;0.0,,,,,0.0,0.067753713989638
mp-3214786,LiMn5(AsRu)6,Li1 Mn5 As6 Ru6,,-0.46555715300446904,Monoclinic,Cm,As;Li;Mn;Ru,263.48022101846215,19.9212583,,11,8,FM,0.0;3.8;3.9;3.9;3.9;3.9;0.0;0.0;0.0;0.0;0.0;0.0;0.1;0.2;0.2;0.1;0.2;0.2,,,,,0.0,0.075608173634422
mp-19850,MnCo2Ge,Mn1 Co2 Ge1,,-0.32572719862069005,Cubic,Fm-3m,Co;Ge;Mn,45.95581398181735,5.0221034,,3,2,FM,3.3;1.0;1.0;0.0,,,,,0.0,0.10928113256762201
mp-1537768,MnIr,Mn1 Ir1,,-0.46865412974138104,Cubic,Pm-3m,Ir;Mn,55.7622632918511,8.0264076,,2,2,FM,0.30000000000000004;3.7,,,,,0.0,0.14393977443116
mp-1203485,Fe3B11HO20,Fe3 B11 H1 O20,,-2.550379704059522,Orthorhombic,Pmn2_1,B;Fe;H;O,1154.951370102959,48.0002324,,12,6,FM,3.8;3.8;3.8;3.8;3.8;3.8;3.8;3.8;3.8;3.8;3.8;3.8;0.0;0.0;0.0;0.0;0.0;0.0;0.0;0.0;0.0;0.0;0.0;0.0;0.0;0.0;0.0;0.0;0.0;0.0;0.0;0.0;0.0;0.0;0.0;0.0;0.0;0.0;0.0;0.0;0.0;0.0;0.0;0.0;0.0;0.0;0.0;0.0;0.0;0.0;0.0;0.0;0.0;0.0;0.0;0.0;0.0;0.0;0.0;0.0;0.0;0.0;0.0;0.0;0.0;0.0;0.0;0.0;0.0;0.0;0.0;0.0;0.0;0.0;0.0;0.0;0.0;0.0;0.0;0.0;0.0;0.0;0.0;0.0;0.0;0.0;0.0;0.0;0.0;0.0;0.0;0.0;0.0;0.0;0.0;0.0;0.0;0.0;0.0;0.0;0.0;0.0;0.0;0.0;0.0;0.0;0.0;0.0;0.0;0.0;0.0;0.0;0.0;0.0;0.0;0.0;0.0;0.0;0.0;0.0;0.0;0.0;0.0;0.0;0.0;0.0;0.0;0.0;0.0;0.0;0.0;0.0;0.0;0.0;0.0;0.0;0.0;0.0;0.0;0.0,,,,,0.0,0.041560392621310005
mp-555399,SrFe3(PO4)3,Sr1 Fe3 P3 O12,,-2.5664998925751883,Orthorhombic,Imma,Fe;O;P;Sr,477.0677240153819,25.9998964,,6,2,FM,0.0;0.0;3.8;3.8;3.8;3.8;4.4;4.4;0.0;0.0;0.0;0.0;0.0;0.0;0.0;0.0;0.0;0.0;0.0;0.0;0.0;0.0;0.0;0.0;0.0;0.0;0.0;0.0;0.0;0.0;0.0;0.0;0.0;0.0;0.0;0.0;0.0;0.0,,,,,0.0,0.054499382563892
mp-556365,KCrF3,K1 Cr1 F3,,-2.85484412875,Monoclinic,C2/m,Cr;F;K,143.85218425808222,7.9999997,,2,2,FM,0.0;0.0;3.7;3.7;0.0;0.0;0.0;0.0;0.0;0.0,,,,,0.03664806266666,0.055612639747251
mp-3200879,Mn2InGeRh4,Mn2 In1 Ge1 Rh4,,-0.6187227698706861,Trigonal,R-3m,Ge;In;Mn;Rh,116.1527963259133,9.1956442,,6,3,FM,3.9;3.9;0.0;0.0;0.4;0.30000000000000004;0.30000000000000004;0.4,,,,,0.0,0.07916851329345401
mp-3214779,CrCoAg2F7,Cr1 Co1 Ag2 F7,,-2.150281933636364,Orthorhombic,Imma,Ag;Co;Cr;F,290.1639570022029,11.9999463,,4,2,FM,2.8;2.8;2.8;2.8;0.0;0.0;0.0;0.0;0.0;0.0;0.0;0.0;0.0;0.0;0.0;0.0;0.0;0.0;0.0;0.0;0.0;0.0,,,,,0.0,0.041355743917942
mp-1183740,CrCo2Ge,Cr1 Co2 Ge1,,-0.11422048124999999,Cubic,Fm-3m,Co;Cr;Ge,47.31604113910424,3.9989286,,3,2,FM,2.1;0.9;0.9;0.0,,,,,0.0,0.08451528284548501
mp-25773,Mn8Cl3O10,Mn8 Cl3 O10,,-2.014130659564859,Tetragonal,I4/mmm,Cl;Mn;O,564.1271281329477,66.0000042,,16,5,FM,4.6;4.5;3.8;3.8;3.7;3.7;3.7;3.7;3.8;3.8;3.8;3.8;3.8;3.8;3.8;3.8;0.0;0.0;0.0;0.0;0.0;0.0;0.0;0.0;0.0;0.0;0.0;0.0;0.0;0.0;0.0;0.0;0.0;0.0;0.0;0.0;0.0;0.0;0.0;0.0;0.0;0.0,,,,,0.0,0.11699491286376401
mp-1225950,CsCrFeF6,Cs1 Cr1 Fe1 F6,,-2.956924186072797,Orthorhombic,Imma,Cr;Cs;F;Fe,302.70328305739423,13.999998699999999,,4,2,FM,0.0;0.0;2.9;2.9;3.8;3.8;0.0;0.0;0.0;0.0;0.0;0.0;0.0;0.0;0.0;0.0;0.0;0.0,,,,,0.0,0.046249907033038
mp-20664,Mn2Sb,Mn2 Sb1,,-0.21540974465517101,Tetragonal,P4/nmm,Mn;Sb,110.7227383251247,15.1575436,,4,2,FM,3.6;3.6;4.0;4.0;0.0;0.0,,,,,0.0,0.136896393905031
mp-20407,NdFeO3,Nd1 Fe1 O3,,-2.716494983249998,Orthorhombic,Pnma,Fe;Nd;O,239.47778048389097,19.9878786,,16,3,FM,0.0;0.0;0.0;0.0;4.2;4.2;4.2;4.2;0.2;0.2;0.2;0.2;0.2;0.2;0.2;0.2;0.2;0.2;0.2;0.2,,,,,0.0,0.083464438995602
mp-1670,MnPt,Mn1 Pt1,,-0.751304879741383,Tetragonal,P4/mmm,Mn;Pt,60.14094344902484,9.0720762,,2,2,FM,4.1;0.30000000000000004,,,,,0.0,0.15084692190918902
mp-1220528,Nd2VFeO6,Nd2 V1 Fe1 O6,,-3.0063176375,Monoclinic,P2_1/c,Fe;Nd;O;V,246.63054360160058,13.9999947,,4,2,FM,0.0;0.0;0.0;0.0;1.9;1.9;4.3;4.3;0.0;0.0;0.0;0.0;0.0;0.0;0.0;0.0;0.0;0.0;0.0;0.0,,,,,0.0,0.05676504821971701
mp-36028,Co2SnO4,Co2 Sn1 O4,,-1.433951823571427,Orthorhombic,Imma,Co;O;Sn,161.92591537522736,11.999465,,4,2,FM,2.7;2.7;2.7;2.7;0.0;0.0;0.0;0.0;0.0;0.0;0.0;0.0;0.0;0.0,,,,,0.056672610357141,0.07410466059243101
mp-1222696,Li5Mn5(SeO3)8,Li5 Mn5 Se8 O24,,-1.740876196073138,Triclinic,P1,Li;Mn;O;Se,598.0991489901379,24.0025525,,5,5,FM,0.0;0.0;0.0;0.0;0.0;4.6;4.6;4.6;4.0;4.6;0.0;0.0;0.0;0.0;0.0;0.0;0.0;0.0;0.0;0.0;0.0;0.0;0.0;0.0;0.0;0.0;0.0;0.0;0.0;0.0;0.0;0.0;0.0;0.0;0.0;0.0;0.0;0.0;0.0;0.0;0.0;0.0,,,,,0.0,0.040131393834161005
mp-3203313,MnAlCrS4,Mn1 Al1 Cr1 S4,,-1.176004075818966,Orthorhombic,Imma,Al;Cr;Mn;S,259.1589596035529,16.0003614,,4,2,FM,4.3;4.3;0.0;0.0;3.1;3.1;0.0;0.0;0.0;0.0;0.0;0.0;0.0;0.0,,,,,0.0,0.061739564877388006
mp-3202738,Mn2GaCo4Sb,Mn2 Ga1 Co4 Sb1,,-0.25761749987069005,Trigonal,R-3m,Co;Ga;Mn;Sb,98.8309194651122,10.124327,,6,3,FM,3.3;3.3;0.0;1.0;0.9;1.0;0.9;0.0,,,,,0.0,0.10244088646341001
mp-1200109,CaFe2P2HO9,Ca1 Fe2 P2 H1 O9,,-2.481975573869046,Orthorhombic,Pbam,Ca;Fe;H;O;P,686.5241144917501,36.0011356,,8,2,FM,0.0;0.0;0.0;0.0;3.8;3.8;3.8;3.8;4.4;4.4;4.4;4.4;0.0;0.0;0.0;0.0;0.0;0.0;0.0;0.0;0.0;0.0;0.0;0.0;0.0;0.0;0.0;0.0;0.0;0.0;0.0;0.0;0.0;0.0;0.0;0.0;0.0;0.0;0.0;0.0;0.0;0.0;0.0;0.0;0.0;0.0;0.0;0.0;0.0;0.0;0.0;0.0;0.0;0.0;0.0;0.0;0.0;0.0;0.0;0.0,,,,,0.0,0.052439724752643004
mp-569200,Eu(Al2Fe)4,Eu1 Al8 Fe4,,-0.31142956961538504,Tetragonal,I4/mmm,Al;Eu;Fe,194.730829036087,14.8338326,,5,5,FM,6.6;0.0;0.0;0.0;0.0;0.0;0.0;0.0;0.0;2.2;2.2;2.2;2.1,,,,,0.0,0.07617608713231
mp-3205490,K4Mn3VF12,K4 Mn3 V1 F12,,-3.027418757922414,Monoclinic,P2/m,F;K;Mn;V,288.02829221839676,17.9993662,,4,4,FM,0.0;0.0;0.0;0.0;4.6;4.6;4.6;2.7;0.0;0.0;0.0;0.0;0.0;0.0;0.0;0.0;0.0;0.0;0.0;0.0,,,,,0.0,0.062491660320479
mp-3201703,CsMnCuS2,Cs1 Mn1 Cu1 S2,,-1.042738422021551,Tetragonal,I-4m2,Cs;Cu;Mn;S,116.27498381269672,5.0000891,,2,2,FM,0.0;4.3;0.1;0.0;0.0,,,,,0.0,0.043002277326088
mp-3201015,Mn2AlCo4As,Mn2 Al1 Co4 As1,,-0.375527613933186,Trigonal,R-3m,Al;As;Co;Mn,92.13353583412228,10.0001978,,6,3,FM,3.2;3.2;0.0;1.1;0.9;1.1;0.9;0.0,,,,,0.0,0.108540258543907
mp-3207366,Mn4Cu5Pd4Pt3,Mn4 Cu5 Pd4 Pt3,,-0.42955645737068604,Monoclinic,Cm,Cu;Mn;Pd;Pt,221.89355113888337,18.0734493,,9,5,FM,4.1;4.1;4.1;4.1;0.1;0.1;0.1;0.1;0.1;0.0;0.0;0.0;0.0;0.0;0.0;0.0,,,,,0.0,0.081450989482284
mp-20758,Cr2CoO4,Cr2 Co1 O4,,-2.09942954,Cubic,Fd-3m,Co;Cr;O,145.38620266155158,17.9999992,,6,2,FM,2.9;2.9;2.9;2.9;2.7;2.7;0.0;0.0;0.0;0.0;0.0;0.0;0.0;0.0,,,,,0.0,0.12380816659681701
mp-1225181,DyYMn2O6,Dy1 Y1 Mn2 O6,,-3.042663056752874,Trigonal,P3,Dy;Mn;O;Y,388.9101666913987,23.9999173,,6,2,FM,0.0;0.0;0.0;0.0;0.0;0.0;3.9;3.9;3.9;3.9;3.9;3.9;0.0;0.0;0.0;0.0;0.0;0.0;0.0;0.0;0.0;0.0;0.0;0.0;0.0;0.0;0.0;0.0;0.0;0.0,,,,,0.0,0.061710696596533006
mp-557668,MnPtF6,Mn1 Pt1 F6,,-2.082902341810344,Trigonal,R-3,F;Mn;Pt,104.59808409535147,4.9999999,,2,2,FM,4.4;0.2;0.0;0.0;0.0;0.0;0.0;0.0,,,,,0.0,0.047802021836671
mp-18808,LuMnO3,Lu1 Mn1 O3,,-3.152525416813216,Hexagonal,P6_3cm,Lu;Mn;O,353.34289219579927,23.9999987,,6,2,FM,0.0;0.0;0.0;0.0;0.0;0.0;3.7;3.7;3.7;3.7;3.7;3.7;0.0;0.0;0.0;0.0;0.0;0.0;0.0;0.0;0.0;0.0;0.0;0.0;0.0;0.0;0.0;0.0;0.0;0.0,,,,,0.0,0.067922687084082
mp-763541,KMn2O4,K1 Mn2 O4,,-2.083411553959359,Monoclinic,P2_1/m,K;Mn;O,188.7890468955709,14.00064,,4,2,FM,0.0;0.0;3.0;3.0;3.7;3.7;0.0;0.0;0.0;0.0;0.0;0.0;0.0;0.0,,,,,0.007961286607141,0.07416023455928801
mp-685142,Co7(SbO6)2,Co7 Sb2 O12,,-1.3220548340476181,Monoclinic,C2/c,Co;O;Sb,470.5462272839195,41.9958124,,18,11,FM,2.7;2.7;2.7;2.7;2.7;2.7;2.7;2.7;2.7;2.7;2.7;2.7;2.7;2.7;0.0;0.0;0.0;0.0;0.30000000000000004;0.0;0.0;0.0;0.0;0.30000000000000004;0.0;0.0;0.0;0.0;0.0;0.30000000000000004;0.0;0.0;0.0;0.0;0.0;0.0;0.0;0.0;0.0;0.30000000000000004;0.0;0.0,,,,,0.05144648329932001,0.08924906834851801
mp-3211840,ZnFeRhO4,Zn1 Fe1 Rh1 O4,,-1.4201607242857142,Orthorhombic,Imma,Fe;O;Rh;Zn,151.7392815921145,10.0000223,,6,3,FM,0.0;0.0;4.1;4.1;0.0;0.0;0.0;0.0;0.2;0.2;0.0;0.0;0.2;0.2,,,,,0.0,0.065902660109336
mp-3214226,TiMn(AlRh2)2,Ti1 Mn1 Al2 Rh4,,-1.020391981393679,Tetragonal,I4_1/amd,Al;Mn;Rh;Ti,221.03626254347813,9.9765858,,10,2,FM,0.0;0.0;4.0;4.0;0.0;0.0;0.0;0.0;0.30000000000000004;0.30000000000000004;0.30000000000000004;0.30000000000000004;0.30000000000000004;0.30000000000000004;0.30000000000000004;0.30000000000000004,,,,,0.0,0.045135516160103
mp-1102834,CrCoP,Cr1 Co1 P1,,-0.561685778214285,Orthorhombic,Pnma,Co;Cr;P,134.93944205648984,7.8293692,,8,2,FM,1.7000000000000002;1.7000000000000002;1.7000000000000002;1.7000000000000002;0.2;0.2;0.2;0.2;0.0;0.0;0.0;0.0,,,,,0.0,0.058021354473382004
mp-558376,Na2Mn2O3,Na2 Mn2 O3,,-1.753329727887932,Tetragonal,P4_32_12,Mn;Na;O,380.0744998129066,39.9999992,,8,8,FM,0.0;0.0;0.0;0.0;0.0;0.0;0.0;0.0;4.4;4.4;4.4;4.4;4.4;4.4;4.4;4.4;0.0;0.0;0.0;0.0;0.0;0.0;0.0;0.0;0.0;0.0;0.0;0.0,,,,,0.074307186477835,0.10524252276774701
mp-23232,FeBr3,Fe1 Br3,,-0.692998976874999,Trigonal,R-3,Br;Fe,229.82811797217516,10.0000001,,8,2,FM,3.9;3.9;0.30000000000000004;0.30000000000000004;0.30000000000000004;0.30000000000000004;0.30000000000000004;0.30000000000000004,,,,,0.0,0.043510777481155005
mp-3215434,K4GaFe3O8,K4 Ga1 Fe3 O8,,-1.793366716562499,Triclinic,P1,Fe;Ga;K;O,254.8649946269517,14.9974909,,7,11,FM,0.0;0.0;0.0;0.0;0.0;4.0;4.1;4.0;0.0;0.30000000000000004;0.30000000000000004;0.0;0.30000000000000004;0.30000000000000004;0.0;0.0,,,,,0.0,0.058844844196638005
mp-1104956,Ta6Fe7,Ta6 Fe7,,-0.18939963338461502,Trigonal,R-3m,Fe;Ta,178.96896501762257,8.4500574,,7,2,FM,0.0;0.0;0.0;0.0;0.0;0.0;1.4;1.4;1.4;1.4;1.4;1.4;1.4,,,,,0.0,0.04721521074432
mp-560917,Mn13Al4Si2(SbO14)2,Mn13 Al4 Si2 Sb2 O28,,-2.487269709451091,Monoclinic,C2/m,Al;Mn;O;Sb;Si,594.6513993556961,64.9986138,,13,5,FM,4.6;4.6;4.6;4.6;4.6;4.7;4.6;4.7;4.7;4.6;4.6;4.7;4.7;0.0;0.0;0.0;0.0;0.0;0.0;0.0;0.0;0.0;0.0;0.0;0.0;0.0;0.0;0.0;0.0;0.0;0.0;0.0;0.0;0.0;0.0;0.0;0.0;0.0;0.0;0.0;0.0;0.0;0.0;0.0;0.0;0.0;0.0;0.0;0.0,,,,,0.0,0.109305407959059
mp-3202462,ScCrH6Os,Sc1 Cr1 H6 Os1,,-0.336095261944444,Cubic,F-43m,Cr;H;Os;Sc,74.89408080938999,4.9999659,,3,3,FM,0.30000000000000004;4.0;0.0;0.0;0.0;0.0;0.0;0.0;0.2,,,,,0.0,0.06676049490112801
mp-864992,MnNbRu2,Mn1 Nb1 Ru2,,-0.32573629612069105,Cubic,Fm-3m,Mn;Nb;Ru,59.60208779492318,4.1942385,,3,2,FM,3.8;0.0;0.2;0.2,,,,,0.0,0.070370664102093
mp-1003764,K3Mn4O8,K3 Mn4 O8,,-2.057949760278734,Triclinic,P1,K;Mn;O,779.4353994690597,60.0000011,,16,16,FM,0.0;0.0;0.0;0.0;0.0;0.0;0.0;0.0;0.0;0.0;0.0;0.0;3.7;3.7;3.0;3.7;3.7;3.7;3.7;3.7;3.0;3.0;3.7;3.7;3.7;3.7;3.7;3.0;0.0;0.0;0.0;0.0;0.0;0.0;0.0;0.0;0.0;0.0;0.0;0.0;0.0;0.0;0.0;0.0;0.0;0.0;0.0;0.0;0.0;0.0;0.0;0.0;0.0;0.0;0.0;0.0;0.0;0.0;0.0;0.0,,,,,0.0,0.076978799193456
mp-1228568,Ba5SrNd2Fe4O15,Ba5 Sr1 Nd2 Fe4 O15,,-2.664146728194444,Monoclinic,Cc,Ba;Fe;Nd;O;Sr,845.8295425816195,39.9999993,,28,19,FM,0.0;0.0;0.0;0.0;0.0;0.0;0.0;0.0;0.0;0.0;0.0;0.0;0.0;0.0;0.0;0.0;4.1;4.1;3.9;3.9;3.9;3.9;3.9;3.9;0.2;0.0;0.2;0.2;0.0;0.0;0.0;0.0;0.2;0.2;0.2;0.0;0.0;0.2;0.0;0.0;0.0;0.2;0.2;0.2;0.2;0.2;0.2;0.2;0.2;0.2;0.2;0.2;0.2;0.2,,,,,0.0,0.047290851508819
mp-1214877,AlNi2BO5,Al1 Ni2 B1 O5,,-2.320189297407406,Orthorhombic,Pbam,Al;B;Ni;O,328.2037210378175,16.0002535,,8,3,FM,0.0;0.0;0.0;0.0;1.8;1.8;1.8;1.8;1.8;1.8;1.8;1.8;0.0;0.0;0.0;0.0;0.0;0.0;0.0;0.0;0.0;0.0;0.0;0.0;0.0;0.0;0.0;0.0;0.0;0.0;0.0;0.0;0.0;0.0;0.0;0.0,,,,,0.0,0.048750981400836
mp-1184055,GaFeRu2,Ga1 Fe1 Ru2,,-0.21801724500000202,Cubic,Fm-3m,Fe;Ga;Ru,52.775499870661584,3.2372357,,3,2,FM,0.0;3.0;0.1;0.1,,,,,0.0,0.061339744918259005
mp-3208602,KMn2FeO6,K1 Mn2 Fe1 O6,,-1.9780543105215511,Monoclinic,C2/c,Fe;K;Mn;O,279.74959081111075,22.0013139,,6,6,FM,0.0;0.0;2.9;2.9;2.9;2.9;4.1;4.1;0.0;0.0;0.0;0.0;0.0;0.0;0.0;0.0;0.0;0.0;0.0;0.0,,,,,0.0,0.078646456054534
mp-20007,MnNiGe,Mn1 Ni1 Ge1,,-0.37070608149425205,Orthorhombic,Pnma,Ge;Mn;Ni,157.9586935148306,13.1962387,,4,2,FM,3.6;3.6;3.6;3.6;-0.0;-0.0;-0.0;-0.0;0.0;0.0;0.0;0.0,,,,,0.0,0.083542338863172
mp-1212340,Ho2MnNiO6,Ho2 Mn1 Ni1 O6,,-2.8608171287931032,Monoclinic,P2_1/c,Ho;Mn;Ni;O,223.2150561184645,9.999602,,4,2,FM,0.0;0.0;0.0;0.0;3.2;3.2;1.7000000000000002;1.7000000000000002;0.0;0.0;0.0;0.0;0.0;0.0;0.0;0.0;0.0;0.0;0.0;0.0,,,,,0.0,0.044798062343487
mp-555010,Sm2MnNiO6,Sm2 Mn1 Ni1 O6,,-2.807459271793104,Monoclinic,P2_1/c,Mn;Ni;O;Sm,232.2573752582881,9.9978722,,4,2,FM,0.0;0.0;0.0;0.0;3.2;3.2;1.7000000000000002;1.7000000000000002;0.0;0.0;0.0;0.0;0.0;0.0;0.0;0.0;0.0;0.0;0.0;0.0,,,,,0.0,0.043046521940935
mp-752932,RbMn4O8,Rb1 Mn4 O8,,-2.114444259167771,Monoclinic,C2/m,Mn;O;Rb,141.86102634490152,12.999984,,4,2,FM,0.0;3.2;3.2;3.2;3.2;0.0;0.0;0.0;0.0;0.0;0.0;0.0;0.0,,,,,0.0,0.09163886893355401
mp-3203532,CaMn3HgO8,Ca1 Mn3 Hg1 O8,,-2.043150958534482,Monoclinic,Cm,Ca;Hg;Mn;O,151.20361997446332,8.9994044,,3,2,FM,0.0;2.9;2.8;2.8;0.0;0.0;0.0;0.0;0.0;0.0;0.0;0.0;0.0,,,,,0.0,0.059518445401769
mp-28943,Mn2BO4,Mn2 B1 O4,,-2.3082221309236433,Monoclinic,P2_1/c,B;Mn;O,285.67116868791186,36.0000006,,8,4,FM,4.4;4.4;4.4;4.4;4.0;4.0;4.0;4.0;0.0;0.0;0.0;0.0;0.0;0.0;0.0;0.0;0.0;0.0;0.0;0.0;0.0;0.0;0.0;0.0;0.0;0.0;0.0;0.0,,,,,0.0,0.12601901957886702
mp-864949,MnGaRh2,Mn1 Ga1 Rh2,,-0.716749101120687,Cubic,Fm-3m,Ga;Mn;Rh,54.74442876749945,4.388737,,3,2,FM,3.8;0.0;0.30000000000000004;0.30000000000000004,,,,,0.0,0.080167737590961
mp-540767,Fe2(SO4)3,Fe2 S3 O12,,-1.524047861378675,Trigonal,R-3,Fe;O;S,436.1826633418016,20.0000005,,4,2,FM,4.2;4.2;4.2;4.2;0.0;0.0;0.0;0.0;0.0;0.0;0.0;0.0;0.0;0.0;0.0;0.0;0.0;0.0;0.0;0.0;0.0;0.0;0.0;0.0;0.0;0.0;0.0;0.0;0.0;0.0;0.0;0.0;0.0;0.0,,,,,0.0,0.045852350817362005
mp-22484,Ba7MnFe6F34,Ba7 Mn1 Fe6 F34,,-3.37229915079023,Monoclinic,C2/m,Ba;F;Fe;Mn,770.6276881092191,35.0017753,,7,3,FM,0.0;0.0;0.0;0.0;0.0;0.0;0.0;4.7;4.5;4.5;4.5;4.5;4.5;4.5;0.0;0.0;0.0;0.0;0.0;0.0;0.0;0.0;0.0;0.0;0.0;0.0;0.0;0.0;0.0;0.0;0.0;0.0;0.0;0.0;0.0;0.0;0.0;0.0;0.0;0.0;0.0;0.0;0.0;0.0;0.0;0.0;0.0;0.0,,,,,0.0,0.045419825734368