ID,pretty_formula,compound,energy_cell,energy_atom,lattice_system,spacegroup,species,volume_cell,moment_cell,mag_field,mag_sites_MP,mag_sites,mag_type,magmom,comment1,icsd_ids,doi,comment2,e_above_hull,magnetization_norm_vol
mp-29745,Na2Mn2Se3,Na2 Mn2 Se3,,-1.13380760445043,Monoclinic,C2/c,Mn;Na;Se,695.3346033871254,39.9999997,,8,2,FM,0.0;0.0;0.0;0.0;0.0;0.0;0.0;0.0;4.4;4.4;4.4;4.4;4.4;4.4;4.4;4.4;0.0;0.0;0.0;0.0;0.0;0.0;0.0;0.0;0.0;0.0;0.0;0.0,,,,,0.0,0.057526260745763
mp-3213354,Mn4SbPd9Au2,Mn4 Sb1 Pd9 Au2,,-0.500922653620691,Tetragonal,I4/mmm,Au;Mn;Pd;Sb,249.49005257155983,19.1507097,,5,3,FM,4.2;4.2;4.2;4.2;0.0;0.0;0.0;0.0;0.0;0.0;0.0;0.0;0.0;0.2;0.0;0.0,,,,,0.0,0.076759411858743
mp-5901,CeMnSi2,Ce1 Mn1 Si2,,-0.651657767370688,Orthorhombic,Cmcm,Ce;Mn;Si,141.9847815488853,6.0647773,,4,2,FM,0.7000000000000001;0.7000000000000001;2.4;2.4;0.0;0.0;0.0;0.0,,,,,0.0,0.042714277078433005
mp-3201698,GaFe2SiRu4,Ga1 Fe2 Si1 Ru4,,-0.34614360312500003,Trigonal,R-3m,Fe;Ga;Ru;Si,103.47948188530484,7.2722592,,6,3,FM,0.0;3.1;3.1;0.0;0.2;0.4;0.2;0.4,,,,,0.0,0.07027730587267901
mp-21333,Cd(FeO2)2,Cd1 Fe2 O4,,-1.50975231,Cubic,Fd-3m,Cd;Fe;O,166.66773094950128,19.9999826,,12,2,FM,0.0;0.0;4.2;4.2;4.2;4.2;0.30000000000000004;0.30000000000000004;0.30000000000000004;0.30000000000000004;0.30000000000000004;0.30000000000000004;0.30000000000000004;0.30000000000000004,,,,,0.0,0.11999912932191802
mp-3209249,Mn4Al2HgO12,Mn4 Al2 Hg1 O12,,-2.218006504496371,Tetragonal,I4/m,Al;Hg;Mn;O,392.67797791521696,23.9976857,,8,2,FM,2.8;2.8;2.8;2.8;2.8;2.8;2.8;2.8;0.0;0.0;0.0;0.0;0.0;0.0;0.0;0.0;0.0;0.0;0.0;0.0;0.0;0.0;0.0;0.0;0.0;0.0;0.0;0.0;0.0;0.0;0.0;0.0;0.0;0.0;0.0;0.0;0.0;0.0,,,,,0.0,0.061112889058375
mp-865523,TiMnRh2,Ti1 Mn1 Rh2,,-0.7921093877873561,Cubic,Fm-3m,Mn;Rh;Ti,57.51238446067404,4.9304371,,3,2,FM,0.0;4.0;0.4;0.4,,,,,0.0,0.085728267854575
mp-1172871,Mn7GeO12,Mn7 Ge1 O12,,-2.052191077025861,Tetragonal,I4_1/acd,Ge;Mn;O,901.4768289980244,116.00905,,28,4,FM,4.1;4.6;3.9;4.1;4.6;4.0;4.1;4.1;4.6;4.0;4.0;3.9;3.9;4.1;4.0;4.1;4.0;3.9;4.0;3.9;3.9;4.0;4.1;4.0;4.6;4.1;3.9;3.9;0.0;0.0;0.0;0.0;0.0;0.0;0.0;0.0;0.0;0.0;0.0;0.0;0.0;0.0;0.0;0.0;0.0;0.0;0.0;0.0;0.0;0.0;0.0;0.0;0.0;0.0;0.0;0.0;0.0;0.0;0.0;0.0;0.0;0.0;0.0;0.0;0.0;0.0;0.0;0.0;0.0;0.0;0.0;0.0;0.0;0.0;0.0;0.0;0.0;0.0;0.0;0.0,,,,,0.0,0.128687777953141
mp-1218639,Sr5Mn4CO13,Sr5 Mn4 C1 O13,,-2.5992830461619203,Monoclinic,Pm,C;Mn;O;Sr,306.62922543220805,15.9994847,,4,4,FM,0.0;0.0;0.0;0.0;0.0;3.9;3.9;3.9;3.9;0.0;0.0;0.0;0.0;0.0;0.0;0.0;0.0;0.0;0.0;0.0;0.0;0.0;0.0,,,,,0.0,0.052178603254298
mp-22697,Ni3(PO4)2,Ni3 P2 O8,,-1.91582308084249,Monoclinic,P2_1/c,Ni;O;P,273.9918216747897,12.0000009,,6,2,FM,1.7000000000000002;1.7000000000000002;1.7000000000000002;1.7000000000000002;1.7000000000000002;1.7000000000000002;0.0;0.0;0.0;0.0;0.0;0.0;0.0;0.0;0.0;0.0;0.0;0.0;0.0;0.0;0.0;0.0;0.0;0.0;0.0;0.0,,,,,0.0,0.043796930969141
mp-771112,Li2Mn3NiO8,Li2 Mn3 Ni1 O8,,-1.950653339675697,Cubic,P4_332,Li;Mn;Ni;O,568.4549463023145,43.9993626,,16,2,FM,0.0;0.0;0.0;0.0;0.0;0.0;0.0;0.0;3.2;3.2;3.2;3.2;3.2;3.2;3.2;3.2;3.2;3.2;3.2;3.2;1.8;1.8;1.8;1.8;0.0;0.0;0.0;0.0;0.0;0.0;0.0;0.0;0.0;0.0;0.0;0.0;0.0;0.0;0.0;0.0;0.0;0.0;0.0;0.0;0.0;0.0;0.0;0.0;0.0;0.0;0.0;0.0;0.0;0.0;0.0;0.0,,,,,0.0,0.07740167076776601
mp-1101986,GdNi3,Gd1 Ni3,,-0.38342262999999904,Trigonal,R-3m,Gd;Ni,173.01871527105646,21.8485911,,11,5,FM,7.0;7.0;7.0;0.1;0.0;0.1;0.1;0.1;0.1;0.1;0.1;0.1,,,,,0.0,0.12627877317070102
mp-694888,Ba8Mn8O21,Ba8 Mn8 O21,,-2.573238282421947,Monoclinic,Pm,Ba;Mn;O,533.2402162301847,29.9999256,,8,4,FM,0.0;0.0;0.0;0.0;0.0;0.0;0.0;0.0;3.5;3.5;2.9;3.6;2.9;3.6;3.6;3.6;0.0;0.0;0.0;0.0;0.0;0.0;0.0;0.0;0.0;0.0;0.0;0.0;0.0;0.0;0.0;0.0;0.0;0.0;0.0;0.0;0.0,,,,,0.0,0.056259683135095
mp-1189915,EuCrTeO6,Eu1 Cr1 Te1 O6,,-2.180212033611111,Trigonal,P-31c,Cr;Eu;O;Te,231.60106417191133,17.9999994,,4,3,FM,6.3;6.3;2.6;2.6;0.0;0.0;0.0;0.0;0.0;0.0;0.0;0.0;0.0;0.0;0.0;0.0;0.0;0.0,,,,,0.0,0.07771984755061001
mp-1225352,Ga3Fe4Co8Si,Ga3 Fe4 Co8 Si1,,-0.3169571009375,Trigonal,R-3m,Co;Fe;Ga;Si,180.17017835882416,21.068689,,12,6,FM,0.0;0.0;0.0;3.0;3.0;3.0;3.0;1.3;1.3;1.2;1.3;1.3;1.3;1.2;1.3;0.0,,,,,0.0,0.11693771517526001
mp-1223358,Mn26As18CO57,Mn26 As18 C1 O57,,-1.8800519839334011,Trigonal,P3,As;C;Mn;O,1458.8465903961555,126.1797505,,26,10,FM,4.6;4.6;4.6;4.6;4.6;4.6;4.6;4.6;4.6;4.6;4.6;4.6;4.6;4.6;4.6;4.6;4.6;4.6;4.6;4.6;4.6;4.6;4.6;4.6;4.6;4.6;0.0;0.0;0.0;0.0;0.0;0.0;0.0;0.0;0.0;0.0;0.0;0.0;0.0;0.0;0.0;0.0;0.0;0.0;0.0;0.0;0.0;0.0;0.0;0.0;0.0;0.0;0.0;0.0;0.0;0.0;0.0;0.0;0.0;0.0;0.0;0.0;0.0;0.0;0.0;0.0;0.0;0.0;0.0;0.0;0.0;0.0;0.0;0.0;0.0;0.0;0.0;0.0;0.0;0.0;0.0;0.0;0.0;0.0;0.0;0.0;0.0;0.0;0.0;0.0;0.0;0.0;0.0;0.0;0.0;0.0;0.0;0.0;0.0;0.0;0.0;0.0,,,,,0.0,0.086492816537848
mp-3212053,Mn4Al2PbO12,Mn4 Al2 Pb1 O12,,-2.36169823568058,Monoclinic,C2/m,Al;Mn;O;Pb,394.6826811578304,24.0002633,,8,2,FM,2.8;2.8;2.8;2.8;2.8;2.8;2.8;2.8;0.0;0.0;0.0;0.0;0.0;0.0;0.0;0.0;0.0;0.0;0.0;0.0;0.0;0.0;0.0;0.0;0.0;0.0;0.0;0.0;0.0;0.0;0.0;0.0;0.0;0.0;0.0;0.0;0.0;0.0,,,,,0.0,0.06080901049317201
mp-19082,TiMnO3,Ti1 Mn1 O3,,-2.851604787479884,Trigonal,R-3,Mn;O;Ti,107.83263051258717,10.0000004,,4,2,FM,0.2;0.2;4.5;4.5;0.0;0.0;0.0;0.0;0.0;0.0,,,,,0.0,0.092736311378703
mp-1223635,KMn8O16,K1 Mn8 O16,,-2.103336242384482,Triclinic,P-1,K;Mn;O,274.92633215745525,24.9883459,,8,4,FM,0.0;3.0;3.0;3.0;3.0;3.0;3.0;3.0;3.0;0.0;0.0;0.0;0.0;0.0;0.0;0.0;0.0;0.0;0.0;0.0;0.0;0.0;0.0;0.0;0.0,,,,,0.0,0.090891060539405
mp-504697,Mn2BiO5,Mn2 Bi1 O5,,-1.9194554109644382,Orthorhombic,Pbam,Bi;Mn;O,370.1075747703095,28.0000012,,8,2,FM,3.0;3.0;3.0;3.0;3.6;3.6;3.6;3.6;0.0;0.0;0.0;0.0;0.0;0.0;0.0;0.0;0.0;0.0;0.0;0.0;0.0;0.0;0.0;0.0;0.0;0.0;0.0;0.0;0.0;0.0;0.0;0.0,,,,,0.0,0.075653683168675
mp-1220540,Nd2FeNiO6,Nd2 Fe1 Ni1 O6,,-2.613608713499999,Monoclinic,P2_1/c,Fe;Nd;Ni;O,238.95191246993647,12.0000017,,4,2,FM,0.0;0.0;0.0;0.0;4.1;4.1;1.6;1.6;0.0;0.0;0.0;0.0;0.0;0.0;0.0;0.0;0.0;0.0;0.0;0.0,,,,,0.0,0.050219316413756
mp-1222504,Mn12Ge4N3,Mn12 Ge4 N3,,-0.32870599158121605,Tetragonal,P4/m,Ge;Mn;N,245.62040568182564,40.6167555,,12,4,FM,3.4;3.4;3.4;3.4;3.4;3.4;3.4;3.4;3.6;3.5;3.5;3.6;0.0;0.0;0.0;0.0;0.0;0.0;0.0,,,,,0.021204264210526003,0.16536392970791902
mp-3216161,NaMnH6Ir,Na1 Mn1 H6 Ir1,,-0.342251807998085,Cubic,P-43m,H;Ir;Mn;Na,324.6388899305483,20.0001954,,4,2,FM,0.0;0.0;0.0;0.0;4.5;4.5;4.5;4.5;0.0;0.0;0.0;0.0;0.0;0.0;0.0;0.0;0.0;0.0;0.0;0.0;0.0;0.0;0.0;0.0;0.0;0.0;0.0;0.0;0.0;0.0;0.0;0.0;0.0;0.0;0.0;0.0,,,,,0.0,0.061607515366623004
mp-579496,Fe3PtN,Fe3 Pt1 N1,,-0.23247727174999902,Cubic,Pm-3m,Fe;N;Pt,57.02610009663068,8.7936485,,4,2,FM,2.9;2.9;2.9;0.30000000000000004;0.0,,,,,0.0,0.15420392566034002
mp-1189724,CsCoO2,Cs1 Co1 O2,,-1.419316700625,Orthorhombic,Cmce,Co;Cs;O,305.89184969734356,15.9983821,,12,6,FM,0.0;0.0;0.0;0.0;2.9;2.9;2.9;2.9;0.5;0.5;0.5;0.5;0.5;0.5;0.5;0.5,,,,,0.0,0.052300779232363
mp-15282,RbMn4(AsO4)3,Rb1 Mn4 As3 O12,,-1.782633354959049,Orthorhombic,Pnnm,As;Mn;O;Rb,1153.5139005114913,79.9999994,,16,3,FM,0.0;0.0;0.0;0.0;4.6;4.6;4.6;4.6;4.6;4.6;4.6;4.6;4.6;4.6;4.6;4.6;4.5;4.5;4.5;4.5;0.0;0.0;0.0;0.0;0.0;0.0;0.0;0.0;0.0;0.0;0.0;0.0;0.0;0.0;0.0;0.0;0.0;0.0;0.0;0.0;0.0;0.0;0.0;0.0;0.0;0.0;0.0;0.0;0.0;0.0;0.0;0.0;0.0;0.0;0.0;0.0;0.0;0.0;0.0;0.0;0.0;0.0;0.0;0.0;0.0;0.0;0.0;0.0;0.0;0.0;0.0;0.0;0.0;0.0;0.0;0.0;0.0;0.0;0.0;0.0,,,,,0.032013719750006005,0.069353303297451
mp-18215,SrFe3(P2O7)2,Sr1 Fe3 P4 O14,,-2.608150599025974,Monoclinic,P2_1/c,Fe;O;P;Sr,541.9095810004836,23.9996216,,6,2,FM,0.0;0.0;3.8;3.8;3.8;3.8;3.8;3.8;0.0;0.0;0.0;0.0;0.0;0.0;0.0;0.0;0.0;0.0;0.0;0.0;0.0;0.0;0.0;0.0;0.0;0.0;0.0;0.0;0.0;0.0;0.0;0.0;0.0;0.0;0.0;0.0;0.0;0.0;0.0;0.0;0.0;0.0;0.0;0.0,,,,,0.0,0.044287132838086
mp-21522,FeNi2BO5,Fe1 Ni2 B1 O5,,-1.8349809712962952,Orthorhombic,Pbam,B;Fe;Ni;O,349.9269784591056,36.0008326,,20,9,FM,4.4;4.4;4.4;4.4;1.8;1.8;1.8;1.8;1.8;1.8;1.8;1.8;0.0;0.0;0.0;0.0;0.0;0.2;0.2;0.2;0.0;0.0;0.0;0.2;0.0;0.0;0.0;0.0;0.0;0.0;0.30000000000000004;0.0;0.30000000000000004;0.30000000000000004;0.30000000000000004;0.0,,,,,0.0,0.102880986080378
mp-3211568,Sr4TiFe2WO12,Sr4 Ti1 Fe2 W1 O12,,-2.8077792655833322,Triclinic,P-1,Fe;O;Sr;Ti;W,244.40672769310135,9.9998678,,3,2,FM,0.0;0.0;0.0;0.0;0.0;4.1;4.1;0.1;0.0;0.0;0.0;0.0;0.0;0.0;0.0;0.0;0.0;0.0;0.0;0.0,,,,,0.0,0.040914863082479005
mp-1188022,ZrMnRh2,Zr1 Mn1 Rh2,,-0.811744217370687,Cubic,Fm-3m,Mn;Rh;Zr,63.741403614641484,4.9442069,,3,2,FM,0.0;4.1;0.4;0.4,,,,,0.0,0.07756664616127601
mp-18750,Mn(FeO2)2,Mn1 Fe2 O4,,-1.6056606784975371,Cubic,Fd-3m,Fe;Mn;O,139.38851348252413,13.9990547,,6,5,FM,4.3;4.3;1.2;1.2;1.2;1.2;0.0;0.0;0.0;0.0;0.0;0.0;0.0;0.0,,,,,0.148755629285714,0.100431910422483
mp-864957,MnSbRu2,Mn1 Sb1 Ru2,,-0.27916170362069004,Cubic,Fm-3m,Mn;Ru;Sb,59.814649465739244,4.0973926,,3,2,FM,3.8;0.0;0.1;0.1,,,,,0.0,0.06850148979552001
mp-1226160,Cr5InS8,Cr5 In1 S8,,-0.9562056644642861,Monoclinic,Cm,Cr;In;S,262.49846045539994,15.0000027,,5,5,FM,3.0;3.0;3.0;3.0;3.0;0.0;0.0;0.0;0.0;0.0;0.0;0.0;0.0;0.0,,,,,0.0,0.057143202569557
mp-3464,FeSiRu2,Fe1 Si1 Ru2,,-0.45433976125000003,Cubic,Fm-3m,Fe;Ru;Si,50.72573080108856,4.0882311,,3,2,FM,3.2;0.0;0.4;0.4,,,,,0.0,0.08059481914674001
mp-1046528,Zn4Co5(TeO6)3,Zn4 Co5 Te3 O18,,-1.5492037505,Monoclinic,C2/c,Co;O;Te;Zn,703.7341174228247,29.9998258,,10,3,FM,0.0;0.0;0.0;0.0;0.0;0.0;0.0;0.0;2.7;2.7;2.7;2.7;2.7;2.7;2.7;2.7;2.7;2.7;0.0;0.0;0.0;0.0;0.0;0.0;0.0;0.0;0.0;0.0;0.0;0.0;0.0;0.0;0.0;0.0;0.0;0.0;0.0;0.0;0.0;0.0;0.0;0.0;0.0;0.0;0.0;0.0;0.0;0.0;0.0;0.0;0.0;0.0;0.0;0.0;0.0;0.0;0.0;0.0;0.0;0.0,,,,,0.0,0.042629488974989006
mp-542976,SrFe2(PO4)2,Sr1 Fe2 P2 O8,,-2.645428499560439,Monoclinic,P2_1/c,Fe;O;P;Sr,667.6975266174668,31.9996723,,8,2,FM,0.0;0.0;0.0;0.0;3.8;3.8;3.8;3.8;3.8;3.8;3.8;3.8;0.0;0.0;0.0;0.0;0.0;0.0;0.0;0.0;0.0;0.0;0.0;0.0;0.0;0.0;0.0;0.0;0.0;0.0;0.0;0.0;0.0;0.0;0.0;0.0;0.0;0.0;0.0;0.0;0.0;0.0;0.0;0.0;0.0;0.0;0.0;0.0;0.0;0.0;0.0;0.0,,,,,0.0,0.047925401883857
mp-25410,LiMnPO4F,Li1 Mn1 P1 O4 F1,,-2.626849563863404,Triclinic,P-1,F;Li;Mn;O;P,181.72009927591657,7.9998935,,2,2,FM,0.0;0.0;3.9;3.9;0.0;0.0;0.0;0.0;0.0;0.0;0.0;0.0;0.0;0.0;0.0;0.0,,,,,0.0,0.044023162720449004
mp-20243,SmFeO3,Sm1 Fe1 O3,,-2.744208402250001,Orthorhombic,Pnma,Fe;O;Sm,234.87355529137713,20.008487,,16,3,FM,0.0;0.0;0.0;0.0;4.2;4.2;4.2;4.2;0.2;0.2;0.2;0.2;0.2;0.2;0.2;0.2;0.2;0.2;0.2;0.2,,,,,0.0,0.08518833452824401
mp-557018,Cs(CoS)2,Cs1 Co2 S2,,-0.722538781124998,Tetragonal,I4/mmm,Co;Cs;S,104.48435813511263,5.0002355,,4,2,FM,0.0;2.2;2.2;0.2;0.2,,,,,0.0,0.047856306812298
mp-12798,Ni3Pt,Ni3 Pt1,,-0.08804041249999901,Cubic,Pm-3m,Ni;Pt,47.61768971534715,2.9312231,,4,2,FM,0.9;0.9;0.9;0.30000000000000004,,,,,0.0,0.0615574404706
mp-1103869,KCr5Te8,K1 Cr5 Te8,,-0.554792962184522,Monoclinic,C2/m,Cr;K;Te,384.37656594615623,15.0017788,,5,3,FM,0.0;3.1;3.1;3.1;3.1;3.1;0.0;0.0;0.0;0.0;0.0;0.0;0.0;0.0,,,,,0.0,0.039028859012444
mp-1403705,Mn3Zn2O8,Mn3 Zn2 O8,,-1.948380194880636,Monoclinic,C2/m,Mn;O;Zn,132.46367924277024,9.0000001,,3,2,FM,2.9;2.8;2.8;0.0;0.0;0.0;0.0;0.0;0.0;0.0;0.0;0.0;0.0,,,,,0.0,0.067943153560648
mp-1193887,BeCr2O4,Be1 Cr2 O4,,-2.5963468889285712,Orthorhombic,Pnma,Be;Cr;O,254.39765156712795,23.9999986,,8,3,FM,0.0;0.0;0.0;0.0;2.9;2.9;2.9;2.9;2.9;2.9;2.9;2.9;0.0;0.0;0.0;0.0;0.0;0.0;0.0;0.0;0.0;0.0;0.0;0.0;0.0;0.0;0.0;0.0,,,,,0.0,0.09434048802005901
mp-1101797,YFeCo3B,Y1 Fe1 Co3 B1,,-0.299060579027777,Hexagonal,P6/mmm,B;Co;Fe;Y,149.8255545837975,8.8008932,,8,2,FM,0.0;0.0;2.6;2.6;0.7000000000000001;0.7000000000000001;0.7000000000000001;0.7000000000000001;0.7000000000000001;0.7000000000000001;0.0;0.0,,,,,0.0,0.05874093524598
mp-1194498,BaFe3(PO4)3,Ba1 Fe3 P3 O12,,-2.562997197838346,Orthorhombic,Imma,Ba;Fe;O;P,490.2126468673131,26.0000058,,6,2,FM,0.0;0.0;4.4;4.4;3.8;3.8;3.8;3.8;0.0;0.0;0.0;0.0;0.0;0.0;0.0;0.0;0.0;0.0;0.0;0.0;0.0;0.0;0.0;0.0;0.0;0.0;0.0;0.0;0.0;0.0;0.0;0.0;0.0;0.0;0.0;0.0;0.0;0.0,,,,,0.0,0.053038219160913
mp-864983,MnVRu2,Mn1 V1 Ru2,,-0.320021453620686,Cubic,Fm-3m,Mn;Ru;V,53.92965605698385,4.0953342,,2,2,FM,3.6;0.5;-0.0;-0.0,,,,,0.0,0.07593844462261601
mp-3206651,Mn4Cu2AsPd9,Mn4 Cu2 As1 Pd9,,-0.451680751901939,Tetragonal,I4/mmm,As;Cu;Mn;Pd,232.2067670759646,19.0257642,,7,4,FM,4.2;4.2;4.2;4.2;0.1;0.1;0.0;0.0;0.0;0.0;0.0;0.0;0.0;0.0;0.0;0.2,,,,,0.0,0.081934581147567
mp-19154,Ba(FeO2)2,Ba1 Fe2 O4,,-2.040105152142857,Orthorhombic,Cmc2_1,Ba;Fe;O,442.3569297073226,40.0000002,,24,7,FM,0.0;0.0;0.0;0.0;4.0;4.0;4.0;4.0;4.0;4.0;4.0;4.0;0.4;0.4;0.4;0.4;0.30000000000000004;0.30000000000000004;0.30000000000000004;0.30000000000000004;0.4;0.4;0.4;0.4;0.4;0.4;0.4;0.4,,,,,0.0,0.090424717041203
mp-1204296,BaMn3(PO4)3,Ba1 Mn3 P3 O12,,-2.719899778564298,Orthorhombic,Imma,Ba;Mn;O;P,508.5610737438847,28.0007664,,6,2,FM,0.0;0.0;4.6;4.6;4.6;4.6;4.1;4.1;0.0;0.0;0.0;0.0;0.0;0.0;0.0;0.0;0.0;0.0;0.0;0.0;0.0;0.0;0.0;0.0;0.0;0.0;0.0;0.0;0.0;0.0;0.0;0.0;0.0;0.0;0.0;0.0;0.0;0.0,,,,,0.0,0.055058807772813
mp-1213622,FeF6,Fe1 F6,,-1.469371693571429,Monoclinic,C2/c,F;Fe,202.4799674244229,8.0000004,,2,2,FM,3.4;3.4;0.0;0.0;0.0;0.0;0.0;0.0;0.0;0.0;0.0;0.0;0.0;0.0,,,,,0.0,0.039510083401144
mp-19905,Co2Si,Co2 Si1,,-0.331056189166666,Orthorhombic,Pnma,Co;Si,125.322678636893,6.0605087,,8,2,FM,0.6000000000000001;0.6000000000000001;0.6000000000000001;0.6000000000000001;1.1;1.1;1.1;1.1;0.0;0.0;0.0;0.0,,,,,0.0,0.048359233667192005
mp-505098,Fe2(SeO4)3,Fe2 Se3 O12,,-0.926841343216911,Monoclinic,P2_1/c,Fe;O;Se,918.2547227373846,39.9999999,,8,2,FM,4.2;4.2;4.2;4.2;4.2;4.2;4.2;4.2;0.0;0.0;0.0;0.0;0.0;0.0;0.0;0.0;0.0;0.0;0.0;0.0;0.0;0.0;0.0;0.0;0.0;0.0;0.0;0.0;0.0;0.0;0.0;0.0;0.0;0.0;0.0;0.0;0.0;0.0;0.0;0.0;0.0;0.0;0.0;0.0;0.0;0.0;0.0;0.0;0.0;0.0;0.0;0.0;0.0;0.0;0.0;0.0;0.0;0.0;0.0;0.0;0.0;0.0;0.0;0.0;0.0;0.0;0.0;0.0,,,,,0.0,0.043560897547858
mp-1188251,Y(Co2B)6,Y1 Co12 B6,,-0.254919811315789,Trigonal,R-3m,B;Co;Y,185.42729711631745,9.2668281,,12,2,FM,0.0;0.4;0.4;0.4;0.4;0.4;0.4;1.3;1.3;1.3;1.3;1.3;1.3;0.0;0.0;0.0;0.0;0.0;0.0,,,,,0.010210342631578,0.049975533506196004
mp-10894,MnAlRh2,Mn1 Al1 Rh2,,-0.8821728536206911,Cubic,Fm-3m,Al;Mn;Rh,54.37158581935218,4.3601136,,3,2,FM,3.8;0.0;0.30000000000000004;0.30000000000000004,,,,,0.0,0.08019103239854601
mp-867811,TaMnRu2,Ta1 Mn1 Ru2,,-0.42801105295402303,Cubic,Fm-3m,Mn;Ru;Ta,59.08904028398378,4.2074409,,3,2,FM,0.0;3.8;0.2;0.2,,,,,0.0,0.07120509792981701
mp-3212532,CrCo2Rh3O8,Cr1 Co2 Rh3 O8,,-1.302542924285713,Trigonal,R-3m,Co;Cr;O;Rh,151.17919356827556,8.9991083,,3,3,FM,2.9;2.6;2.6;0.0;0.0;0.0;0.0;0.0;0.0;0.0;0.0;0.0;0.0;0.0,,,,,0.0,0.059526103345271
mp-1186005,MnZnNi2,Mn1 Zn1 Ni2,,-0.308682719870688,Cubic,Fm-3m,Mn;Ni;Zn,47.629903413459175,5.0263022,,3,2,FM,3.7;0.0;0.7000000000000001;0.7000000000000001,,,,,0.0,0.10552828873844901
mp-561395,Na2FeNiF7,Na2 Fe1 Ni1 F7,,-2.708318773887147,Orthorhombic,Imm2,F;Fe;Na;Ni,288.1303564952604,13.9999571,,4,2,FM,0.0;0.0;0.0;0.0;4.5;4.5;1.9;1.9;0.0;0.0;0.0;0.0;0.0;0.0;0.0;0.0;0.0;0.0;0.0;0.0;0.0;0.0,,,,,0.0,0.048588969486907004
mp-1228231,Ba3TiFe2O9,Ba3 Ti1 Fe2 O9,,-2.612005185555555,Hexagonal,P6_3mc,Ba;Fe;O;Ti,407.7128467307327,16.0062676,,4,2,FM,0.0;0.0;0.0;0.0;0.0;0.0;0.0;0.0;3.5;3.5;4.2;4.2;0.0;0.0;0.0;0.0;0.0;0.0;0.0;0.0;0.0;0.0;0.0;0.0;0.0;0.0;0.0;0.0;0.0;0.0,,,,,0.0,0.039258678573282
mp-504969,Ni3(AsO4)2,Ni3 As2 O8,,-1.327122326153845,Orthorhombic,Cmce,As;Ni;O,271.37372051097816,11.9999973,,6,3,FM,1.7000000000000002;1.7000000000000002;1.7000000000000002;1.7000000000000002;1.7000000000000002;1.7000000000000002;0.0;0.0;0.0;0.0;0.0;0.0;0.0;0.0;0.0;0.0;0.0;0.0;0.0;0.0;0.0;0.0;0.0;0.0;0.0;0.0,,,,,0.0,0.044219452338291006
mp-3206456,Fe5Ge(Mo3N)2,Fe5 Ge1 Mo6 N2,,-0.20338907839285902,Orthorhombic,Imma,Fe;Ge;Mo;N,347.33799021373454,26.3807074,,10,3,FM,2.7;2.7;2.6;2.7;2.7;2.6;2.6;2.7;2.7;2.6;0.0;0.0;0.0;0.0;0.0;0.0;0.0;-0.0;0.0;0.0;0.0;0.0;0.0;-0.0;0.0;0.0;0.0;0.0,,,,,0.0,0.075951114313083
mp-1226433,Cr3GaS6,Cr3 Ga1 S6,,-0.9660185079374991,Trigonal,P3m1,Cr;Ga;S,741.6494858224772,35.5504144,,12,6,FM,3.0;3.0;3.0;3.0;3.0;3.0;2.9;3.0;3.0;3.0;3.0;3.0;0.0;0.0;0.0;0.0;0.0;0.0;0.0;0.0;0.0;0.0;0.0;0.0;0.0;0.0;0.0;0.0;0.0;0.0;0.0;0.0;0.0;0.0;0.0;0.0;0.0;0.0;0.0;0.0,,,,,0.003444005750001,0.047934253416996
mp-559464,KFeO2,K1 Fe1 O2,,-1.705657777812499,Orthorhombic,Pbca,Fe;K;O,1002.9626950383653,79.9999989,,48,6,FM,0.0;0.0;0.0;0.0;0.0;0.0;0.0;0.0;0.0;0.0;0.0;0.0;0.0;0.0;0.0;0.0;4.1;4.1;4.1;4.1;4.1;4.1;4.1;4.1;4.1;4.1;4.1;4.1;4.1;4.1;4.1;4.1;0.4;0.4;0.4;0.4;0.4;0.4;0.4;0.4;0.4;0.4;0.4;0.4;0.4;0.4;0.4;0.4;0.4;0.4;0.4;0.4;0.4;0.4;0.4;0.4;0.4;0.4;0.4;0.4;0.4;0.4;0.4;0.4,,,,,0.0,0.079763683430857
mp-1218798,Sr2Nd(FeO3)3,Sr2 Nd1 Fe3 O9,,-2.410243684166666,Monoclinic,C2/c,Fe;Nd;O;Sr,360.16220528258924,26.0047801,,6,2,FM,0.0;0.0;0.0;0.0;0.0;0.0;4.1;4.1;4.1;4.1;4.1;4.1;0.0;0.0;0.0;0.0;0.0;0.0;0.0;0.0;0.0;0.0;0.0;0.0;0.0;0.0;0.0;0.0;0.0;0.0,,,,,0.0,0.07220296777002501
mp-18038,KBaFeO3,K1 Ba1 Fe1 O3,,-2.163714324958333,Orthorhombic,Cmce,Ba;Fe;K;O,451.5735602277189,20.0028292,,8,4,FM,0.0;0.0;0.0;0.0;0.0;0.0;0.0;0.0;4.2;4.2;4.2;4.2;0.2;0.2;0.2;0.2;0.0;0.0;0.0;0.0;0.0;0.0;0.0;0.0,,,,,0.0,0.044295837847355
mp-3201095,FePdPt4,Fe1 Pd1 Pt4,,-0.22778687833333303,Orthorhombic,Amm2,Fe;Pd;Pt,89.06903372607782,5.2275229,,6,6,FM,3.5;0.30000000000000004;0.30000000000000004;0.30000000000000004;0.4;0.4,,,,,0.0,0.058690688349406
mp-1219215,Sm2VFeO6,Sm2 V1 Fe1 O6,,-3.033228952500001,Monoclinic,P2_1/c,Fe;O;Sm;V,241.77166485768328,14.0001795,,4,2,FM,0.0;0.0;0.0;0.0;1.9;1.9;4.3;4.3;0.0;0.0;0.0;0.0;0.0;0.0;0.0;0.0;0.0;0.0;0.0;0.0,,,,,0.0,0.057906618247597005
mp-1210598,Mn2TeO6,Mn2 Te1 O6,,-1.7093414340517241,Tetragonal,P4_2/mnm,Mn;O;Te,192.58400823969285,15.999941,,4,2,FM,3.8;3.8;3.8;3.8;0.0;0.0;0.0;0.0;0.0;0.0;0.0;0.0;0.0;0.0;0.0;0.0;0.0;0.0,,,,,0.015212258703696002,0.083080319836765
mp-1103910,Zr(GaFe)6,Zr1 Ga6 Fe6,,-0.307224717307692,Orthorhombic,Immm,Fe;Ga;Zr,180.71035451898302,10.8292082,,6,2,FM,0.0;0.0;0.0;0.0;0.0;0.0;0.0;1.9;1.9;1.9;1.9;1.9;1.9,,,,,0.0,0.05992577585731201
mp-1104719,Gd(Al2Fe)4,Gd1 Al8 Fe4,,-0.410023256923076,Tetragonal,I4/mmm,Al;Fe;Gd,201.45731178147548,12.7506408,,5,2,FM,6.9;0.0;0.0;0.0;0.0;0.0;0.0;0.0;0.0;1.6;1.6;1.6;1.6,,,,,0.0,0.063292022946433
mp-3210718,Mn3Cr8AgSe16,Mn3 Cr8 Ag1 Se16,,-0.8541833686945791,Trigonal,R3m,Ag;Cr;Mn;Se,605.5093911290415,38.0021212,,11,7,FM,4.3;4.3;4.3;3.2;3.2;3.2;3.2;3.2;3.2;3.2;3.2;0.0;0.0;0.0;0.0;0.0;0.0;0.0;0.0;0.0;0.0;0.0;0.0;0.0;0.0;0.0;0.0;0.0,,,,,0.0,0.06276058101946301
mp-865032,Mn2PtRh,Mn2 Pt1 Rh1,,-0.6698131647413771,Cubic,Fm-3m,Mn;Pt;Rh,57.91112679989274,9.1403288,,4,3,FM,4.0;4.0;0.4;0.7000000000000001,,,,,0.0,0.157833723933289
mp-863405,Mn8PbO16,Mn8 Pb1 O16,,-2.030123408234481,Triclinic,P1,Mn;O;Pb,274.1721599148218,25.998543,,8,8,FM,3.2;3.1;3.1;3.2;3.2;3.1;3.2;3.0;0.0;0.0;0.0;0.0;0.0;0.0;0.0;0.0;0.0;0.0;0.0;0.0;0.0;0.0;0.0;0.0;0.0,,,,,0.0,0.09482561252053101
mp-554634,SrMn5(SO4)6,Sr1 Mn5 S6 O24,,-2.15304683087005,Trigonal,P-3,Mn;O;S;Sr,1448.0639398309152,75.4326879,,15,4,FM,0.0;0.0;0.0;4.7;4.7;4.7;4.7;4.7;4.7;4.7;4.7;4.7;4.7;4.7;4.7;4.7;4.7;4.7;0.0;0.0;0.0;0.0;0.0;0.0;0.0;0.0;0.0;0.0;0.0;0.0;0.0;0.0;0.0;0.0;0.0;0.0;0.0;0.0;0.0;0.0;0.0;0.0;0.0;0.0;0.0;0.0;0.0;0.0;0.0;0.0;0.0;0.0;0.0;0.0;0.0;0.0;0.0;0.0;0.0;0.0;0.0;0.0;0.0;0.0;0.0;0.0;0.0;0.0;0.0;0.0;0.0;0.0;0.0;0.0;0.0;0.0;0.0;0.0;0.0;0.0;0.0;0.0;0.0;0.0;0.0;0.0;0.0;0.0;0.0;0.0;0.0;0.0;0.0;0.0;0.0;0.0;0.0;0.0;0.0;0.0;0.0;0.0;0.0;0.0;0.0;0.0;0.0;0.0,,,,,0.0,0.05209209747244101
mp-3213458,CsMnMoF6,Cs1 Mn1 Mo1 F6,,-2.82723650605364,Orthorhombic,Imma,Cs;F;Mn;Mo,315.7969242805646,16.0000645,,4,2,FM,0.0;0.0;4.6;4.6;2.7;2.7;0.0;0.0;0.0;0.0;0.0;0.0;0.0;0.0;0.0;0.0;0.0;0.0,,,,,0.0,0.050665675533258
mp-505232,GdNi(BO2)5,Gd1 Ni1 B5 O10,,-2.853718377401962,Monoclinic,P2_1/c,B;Gd;Ni;O,625.1645897096056,36.0007547,,8,2,FM,6.9;6.9;6.9;6.9;1.8;1.8;1.8;1.8;0.0;0.0;0.0;0.0;0.0;0.0;0.0;0.0;0.0;0.0;0.0;0.0;0.0;0.0;0.0;0.0;0.0;0.0;0.0;0.0;0.0;0.0;0.0;0.0;0.0;0.0;0.0;0.0;0.0;0.0;0.0;0.0;0.0;0.0;0.0;0.0;0.0;0.0;0.0;0.0;0.0;0.0;0.0;0.0;0.0;0.0;0.0;0.0;0.0;0.0;0.0;0.0;0.0;0.0;0.0;0.0;0.0;0.0;0.0;0.0,,,,,0.0,0.057586042607951006